# vtk DataFile Version 2.0
cantilever_tri3_mix
ASCII
DATASET POLYDATA
POINTS 1105 float
0.000000 -6.000000 0.000000
48.000000 -6.000000 0.000000
48.000000 6.000000 0.000000
0.000000 6.000000 0.000000
0.750000 -6.000000 0.000000
1.500000 -6.000000 0.000000
2.250000 -6.000000 0.000000
3.000000 -6.000000 0.000000
3.750000 -6.000000 0.000000
4.500000 -6.000000 0.000000
5.250000 -6.000000 0.000000
6.000000 -6.000000 0.000000
6.750000 -6.000000 0.000000
7.500000 -6.000000 0.000000
8.250000 -6.000000 0.000000
9.000000 -6.000000 0.000000
9.750000 -6.000000 0.000000
10.500000 -6.000000 0.000000
11.250000 -6.000000 0.000000
12.000000 -6.000000 0.000000
12.750000 -6.000000 0.000000
13.500000 -6.000000 0.000000
14.250000 -6.000000 0.000000
15.000000 -6.000000 0.000000
15.750000 -6.000000 0.000000
16.500000 -6.000000 0.000000
17.250000 -6.000000 0.000000
18.000000 -6.000000 0.000000
18.750000 -6.000000 0.000000
19.500000 -6.000000 0.000000
20.250000 -6.000000 0.000000
21.000000 -6.000000 0.000000
21.750000 -6.000000 0.000000
22.500000 -6.000000 0.000000
23.250000 -6.000000 0.000000
24.000000 -6.000000 0.000000
24.750000 -6.000000 0.000000
25.500000 -6.000000 0.000000
26.250000 -6.000000 0.000000
27.000000 -6.000000 0.000000
27.750000 -6.000000 0.000000
28.500000 -6.000000 0.000000
29.250000 -6.000000 0.000000
30.000000 -6.000000 0.000000
30.750000 -6.000000 0.000000
31.500000 -6.000000 0.000000
32.250000 -6.000000 0.000000
33.000000 -6.000000 0.000000
33.750000 -6.000000 0.000000
34.500000 -6.000000 0.000000
35.250000 -6.000000 0.000000
36.000000 -6.000000 0.000000
36.750000 -6.000000 0.000000
37.500000 -6.000000 0.000000
38.250000 -6.000000 0.000000
39.000000 -6.000000 0.000000
39.750000 -6.000000 0.000000
40.500000 -6.000000 0.000000
41.250000 -6.000000 0.000000
42.000000 -6.000000 0.000000
42.750000 -6.000000 0.000000
43.500000 -6.000000 0.000000
44.250000 -6.000000 0.000000
45.000000 -6.000000 0.000000
45.750000 -6.000000 0.000000
46.500000 -6.000000 0.000000
47.250000 -6.000000 0.000000
48.000000 -5.250000 0.000000
48.000000 -4.500000 0.000000
48.000000 -3.750000 0.000000
48.000000 -3.000000 0.000000
48.000000 -2.250000 0.000000
48.000000 -1.500000 0.000000
48.000000 -0.750000 0.000000
48.000000 -0.000000 0.000000
48.000000 0.750000 0.000000
48.000000 1.500000 0.000000
48.000000 2.250000 0.000000
48.000000 3.000000 0.000000
48.000000 3.750000 0.000000
48.000000 4.500000 0.000000
48.000000 5.250000 0.000000
47.250000 6.000000 0.000000
46.500000 6.000000 0.000000
45.750000 6.000000 0.000000
45.000000 6.000000 0.000000
44.250000 6.000000 0.000000
43.500000 6.000000 0.000000
42.750000 6.000000 0.000000
42.000000 6.000000 0.000000
41.250000 6.000000 0.000000
40.500000 6.000000 0.000000
39.750000 6.000000 0.000000
39.000000 6.000000 0.000000
38.250000 6.000000 0.000000
37.500000 6.000000 0.000000
36.750000 6.000000 0.000000
36.000000 6.000000 0.000000
35.250000 6.000000 0.000000
34.500000 6.000000 0.000000
33.750000 6.000000 0.000000
33.000000 6.000000 0.000000
32.250000 6.000000 0.000000
31.500000 6.000000 0.000000
30.750000 6.000000 0.000000
30.000000 6.000000 0.000000
29.250000 6.000000 0.000000
28.500000 6.000000 0.000000
27.750000 6.000000 0.000000
27.000000 6.000000 0.000000
26.250000 6.000000 0.000000
25.500000 6.000000 0.000000
24.750000 6.000000 0.000000
24.000000 6.000000 0.000000
23.250000 6.000000 0.000000
22.500000 6.000000 0.000000
21.750000 6.000000 0.000000
21.000000 6.000000 0.000000
20.250000 6.000000 0.000000
19.500000 6.000000 0.000000
18.750000 6.000000 0.000000
18.000000 6.000000 0.000000
17.250000 6.000000 0.000000
16.500000 6.000000 0.000000
15.750000 6.000000 0.000000
15.000000 6.000000 0.000000
14.250000 6.000000 0.000000
13.500000 6.000000 0.000000
12.750000 6.000000 0.000000
12.000000 6.000000 0.000000
11.250000 6.000000 0.000000
10.500000 6.000000 0.000000
9.750000 6.000000 0.000000
9.000000 6.000000 0.000000
8.250000 6.000000 0.000000
7.500000 6.000000 0.000000
6.750000 6.000000 0.000000
6.000000 6.000000 0.000000
5.250000 6.000000 0.000000
4.500000 6.000000 0.000000
3.750000 6.000000 0.000000
3.000000 6.000000 0.000000
2.250000 6.000000 0.000000
1.500000 6.000000 0.000000
0.750000 6.000000 0.000000
0.000000 5.250000 0.000000
0.000000 4.500000 0.000000
0.000000 3.750000 0.000000
0.000000 3.000000 0.000000
0.000000 2.250000 0.000000
0.000000 1.500000 0.000000
0.000000 0.750000 0.000000
0.000000 0.000000 0.000000
0.000000 -0.750000 0.000000
0.000000 -1.500000 0.000000
0.000000 -2.250000 0.000000
0.000000 -3.000000 0.000000
0.000000 -3.750000 0.000000
0.000000 -4.500000 0.000000
0.000000 -5.250000 0.000000
0.750000 -5.250000 0.000000
0.750000 -4.500000 0.000000
0.750000 -3.750000 0.000000
0.750000 -3.000000 0.000000
0.750000 -2.250000 0.000000
0.750000 -1.500000 0.000000
0.750000 -0.750000 0.000000
0.750000 0.000000 0.000000
0.750000 0.750000 0.000000
0.750000 1.500000 0.000000
0.750000 2.250000 0.000000
0.750000 3.000000 0.000000
0.750000 3.750000 0.000000
0.750000 4.500000 0.000000
0.750000 5.250000 0.000000
1.500000 -5.250000 0.000000
1.500000 -4.500000 0.000000
1.500000 -3.750000 0.000000
1.500000 -3.000000 0.000000
1.500000 -2.250000 0.000000
1.500000 -1.500000 0.000000
1.500000 -0.750000 0.000000
1.500000 0.000000 0.000000
1.500000 0.750000 0.000000
1.500000 1.500000 0.000000
1.500000 2.250000 0.000000
1.500000 3.000000 0.000000
1.500000 3.750000 0.000000
1.500000 4.500000 0.000000
1.500000 5.250000 0.000000
2.250000 -5.250000 0.000000
2.250000 -4.500000 0.000000
2.250000 -3.750000 0.000000
2.250000 -3.000000 0.000000
2.250000 -2.250000 0.000000
2.250000 -1.500000 0.000000
2.250000 -0.750000 0.000000
2.250000 0.000000 0.000000
2.250000 0.750000 0.000000
2.250000 1.500000 0.000000
2.250000 2.250000 0.000000
2.250000 3.000000 0.000000
2.250000 3.750000 0.000000
2.250000 4.500000 0.000000
2.250000 5.250000 0.000000
3.000000 -5.250000 0.000000
3.000000 -4.500000 0.000000
3.000000 -3.750000 0.000000
3.000000 -3.000000 0.000000
3.000000 -2.250000 0.000000
3.000000 -1.500000 0.000000
3.000000 -0.750000 0.000000
3.000000 0.000000 0.000000
3.000000 0.750000 0.000000
3.000000 1.500000 0.000000
3.000000 2.250000 0.000000
3.000000 3.000000 0.000000
3.000000 3.750000 0.000000
3.000000 4.500000 0.000000
3.000000 5.250000 0.000000
3.750000 -5.250000 0.000000
3.750000 -4.500000 0.000000
3.750000 -3.750000 0.000000
3.750000 -3.000000 0.000000
3.750000 -2.250000 0.000000
3.750000 -1.500000 0.000000
3.750000 -0.750000 0.000000
3.750000 0.000000 0.000000
3.750000 0.750000 0.000000
3.750000 1.500000 0.000000
3.750000 2.250000 0.000000
3.750000 3.000000 0.000000
3.750000 3.750000 0.000000
3.750000 4.500000 0.000000
3.750000 5.250000 0.000000
4.500000 -5.250000 0.000000
4.500000 -4.500000 0.000000
4.500000 -3.750000 0.000000
4.500000 -3.000000 0.000000
4.500000 -2.250000 0.000000
4.500000 -1.500000 0.000000
4.500000 -0.750000 0.000000
4.500000 0.000000 0.000000
4.500000 0.750000 0.000000
4.500000 1.500000 0.000000
4.500000 2.250000 0.000000
4.500000 3.000000 0.000000
4.500000 3.750000 0.000000
4.500000 4.500000 0.000000
4.500000 5.250000 0.000000
5.250000 -5.250000 0.000000
5.250000 -4.500000 0.000000
5.250000 -3.750000 0.000000
5.250000 -3.000000 0.000000
5.250000 -2.250000 0.000000
5.250000 -1.500000 0.000000
5.250000 -0.750000 0.000000
5.250000 0.000000 0.000000
5.250000 0.750000 0.000000
5.250000 1.500000 0.000000
5.250000 2.250000 0.000000
5.250000 3.000000 0.000000
5.250000 3.750000 0.000000
5.250000 4.500000 0.000000
5.250000 5.250000 0.000000
6.000000 -5.250000 0.000000
6.000000 -4.500000 0.000000
6.000000 -3.750000 0.000000
6.000000 -3.000000 0.000000
6.000000 -2.250000 0.000000
6.000000 -1.500000 0.000000
6.000000 -0.750000 0.000000
6.000000 0.000000 0.000000
6.000000 0.750000 0.000000
6.000000 1.500000 0.000000
6.000000 2.250000 0.000000
6.000000 3.000000 0.000000
6.000000 3.750000 0.000000
6.000000 4.500000 0.000000
6.000000 5.250000 0.000000
6.750000 -5.250000 0.000000
6.750000 -4.500000 0.000000
6.750000 -3.750000 0.000000
6.750000 -3.000000 0.000000
6.750000 -2.250000 0.000000
6.750000 -1.500000 0.000000
6.750000 -0.750000 0.000000
6.750000 0.000000 0.000000
6.750000 0.750000 0.000000
6.750000 1.500000 0.000000
6.750000 2.250000 0.000000
6.750000 3.000000 0.000000
6.750000 3.750000 0.000000
6.750000 4.500000 0.000000
6.750000 5.250000 0.000000
7.500000 -5.250000 0.000000
7.500000 -4.500000 0.000000
7.500000 -3.750000 0.000000
7.500000 -3.000000 0.000000
7.500000 -2.250000 0.000000
7.500000 -1.500000 0.000000
7.500000 -0.750000 0.000000
7.500000 0.000000 0.000000
7.500000 0.750000 0.000000
7.500000 1.500000 0.000000
7.500000 2.250000 0.000000
7.500000 3.000000 0.000000
7.500000 3.750000 0.000000
7.500000 4.500000 0.000000
7.500000 5.250000 0.000000
8.250000 -5.250000 0.000000
8.250000 -4.500000 0.000000
8.250000 -3.750000 0.000000
8.250000 -3.000000 0.000000
8.250000 -2.250000 0.000000
8.250000 -1.500000 0.000000
8.250000 -0.750000 0.000000
8.250000 0.000000 0.000000
8.250000 0.750000 0.000000
8.250000 1.500000 0.000000
8.250000 2.250000 0.000000
8.250000 3.000000 0.000000
8.250000 3.750000 0.000000
8.250000 4.500000 0.000000
8.250000 5.250000 0.000000
9.000000 -5.250000 0.000000
9.000000 -4.500000 0.000000
9.000000 -3.750000 0.000000
9.000000 -3.000000 0.000000
9.000000 -2.250000 0.000000
9.000000 -1.500000 0.000000
9.000000 -0.750000 0.000000
9.000000 0.000000 0.000000
9.000000 0.750000 0.000000
9.000000 1.500000 0.000000
9.000000 2.250000 0.000000
9.000000 3.000000 0.000000
9.000000 3.750000 0.000000
9.000000 4.500000 0.000000
9.000000 5.250000 0.000000
9.750000 -5.250000 0.000000
9.750000 -4.500000 0.000000
9.750000 -3.750000 0.000000
9.750000 -3.000000 0.000000
9.750000 -2.250000 0.000000
9.750000 -1.500000 0.000000
9.750000 -0.750000 0.000000
9.750000 0.000000 0.000000
9.750000 0.750000 0.000000
9.750000 1.500000 0.000000
9.750000 2.250000 0.000000
9.750000 3.000000 0.000000
9.750000 3.750000 0.000000
9.750000 4.500000 0.000000
9.750000 5.250000 0.000000
10.500000 -5.250000 0.000000
[...]
POINT_DATA 1105
SCALARS P float
LOOKUP_TABLE default
949.936569
8.668324
-4.271994
-926.959034
932.910833
913.643946
904.187361
888.371838
874.941175
859.226969
843.126097
829.979522
812.213135
800.214043
782.730011
769.481294
753.831113
738.853726
724.526104
708.941325
694.672059
679.470427
664.708504
649.993459
634.933432
620.345653
605.333702
590.624456
575.803984
560.973165
546.236047
531.350729
516.626968
501.807671
487.034945
472.257025
457.497110
442.697889
427.927734
413.135841
398.389627
383.639805
368.856319
354.094952
339.263107
324.544404
309.780073
295.043517
280.308436
265.496517
250.757816
236.032304
221.276346
206.533038
191.820915
177.024154
162.313242
147.454568
132.926588
118.082026
103.338852
88.693107
73.459722
59.469213
43.784088
30.788739
15.802373
9.578449
10.454399
10.813573
9.739268
9.695316
8.415201
7.756802
6.685701
5.731039
4.305194
3.213638
1.477281
-0.288899
-1.741633
-3.984329
-14.741532
-30.043437
-43.278464
-58.658634
-73.840043
-88.100700
-103.216564
-117.907079
-132.537404
-147.538002
-162.057437
-176.975655
-191.674110
-206.383227
-221.250644
-235.911227
-250.810741
-265.454175
-280.254585
-294.995269
-309.753024
-324.540876
-339.260658
-354.026858
-368.779596
-383.557052
-398.298838
-413.059100
-427.838939
-442.575261
-457.353266
-472.116373
-486.875180
-501.661665
-516.421127
-531.182750
-545.969729
-560.753134
-575.523507
-590.299147
-605.112859
-619.883075
-634.664180
-649.514056
-664.236366
-679.136266
-693.870980
-708.737272
-723.591719
-738.307976
-753.367806
-767.893685
-783.199927
-797.456657
-813.153583
-826.856648
-843.349975
-856.137331
-874.193639
-885.130164
-904.947582
-907.257498
-929.528681
-836.487901
-708.977036
-582.250607
-451.449232
-338.511866
-206.052551
-87.951406
38.093148
164.559175
281.553679
415.148486
523.164899
660.646953
789.081781
916.173170
866.712332
736.645428
617.261208
492.227390
374.182814
244.072499
128.450201
-0.411060
-119.637592
-243.348771
-369.239341
-485.333417
-614.443924
-733.149468
-858.650526
845.539473
723.566329
604.180716
483.949350
360.560367
242.815272
118.096753
0.421194
-123.180869
-242.037912
-364.825526
-482.540111
-609.768857
-723.544114
-851.760457
833.939403
710.604947
597.666512
473.964939
359.366967
236.512707
120.882708
-1.044784
-117.729080
-237.942610
-356.499476
-474.744601
-595.293455
-713.677856
-832.410907
819.979205
699.911125
585.817147
466.552955
351.225049
233.406502
116.179828
-0.264355
-118.570517
-233.861157
-353.448735
-467.606867
-589.126727
-699.338485
-822.335936
806.458135
688.508806
577.719027
459.053917
346.466182
229.515831
115.953615
-0.499646
-114.509059
-230.665561
-345.146957
-460.517491
-576.470130
-690.873918
-802.554244
793.429965
676.717970
566.781413
451.092039
339.830189
225.381949
112.784831
-0.312369
-114.234007
-226.034264
-341.362657
-451.751568
-568.669845
-676.249881
-792.710550
779.161090
665.740846
557.713347
443.688025
334.345833
221.707646
111.582319
-0.578344
-111.037671
-223.019033
-333.773506
-445.261844
-557.187441
-666.874212
-777.126956
765.788692
653.496168
547.423462
435.786039
328.228645
217.665231
109.085469
-0.337302
-110.033717
-218.358006
-329.175750
-436.299956
-548.374336
-653.827950
-763.559134
752.144060
642.546636
537.680076
428.202248
322.423757
213.934141
107.427390
-0.575767
-107.445047
-215.118263
-322.374172
-429.590744
-537.809737
-643.010878
-751.333482
738.351010
630.519857
527.911146
420.357118
316.506489
209.978970
105.313469
-0.374142
-105.861563
-210.752772
-317.041576
-421.056442
-528.337125
-631.099610
-735.593187
724.943630
619.156145
517.803752
412.695535
310.559776
206.144724
103.381489
-0.528530
-103.740130
-207.199661
-310.907409
-413.770241
-518.392586
-619.484214
-723.877579
711.117430
607.591204
508.285055
404.885920
304.738249
202.276241
101.459224
-0.406710
-101.790676
-203.124626
-305.031891
-405.794543
-508.471387
-607.998112
-708.891346
697.600275
595.792754
498.117541
397.175740
298.738718
198.340550
99.384001
-0.490872
-99.933316
-199.303760
-299.307417
-398.031149
-498.856248
-596.179348
-695.776283
683.904910
584.478547
488.547290
389.417148
292.969914
194.541609
97.554272
-0.430485
-97.804249
-195.429358
-293.182712
-390.382628
-488.802340
-584.720201
-682.243139
670.258889
572.569532
478.541560
381.630134
286.955639
190.589104
95.448093
-0.440132
-96.050585
-191.458291
-287.574763
-382.417906
-479.203749
-572.959023
-668.056582
656.643774
561.186076
468.785054
373.905588
281.181505
186.764234
93.628344
-0.464768
-93.897177
-187.679720
-281.447043
-374.839564
-469.246981
-561.367759
-655.055753
642.943426
549.409864
458.990008
366.097477
275.190725
182.854457
91.528700
-0.396801
-92.122826
-183.655401
-275.778806
-366.884106
-459.538266
-549.737396
-640.825117
629.343144
537.828734
449.102686
358.374694
269.396849
178.959916
89.682918
-0.474251
-90.016547
-179.890419
-269.756686
-359.218680
-449.711389
-538.014292
-627.527682
615.648313
526.204166
439.382778
350.571322
263.458091
175.113908
87.617281
-0.380867
-88.189381
-175.876648
-263.970624
-351.362958
-439.908509
-526.435563
-613.747533
602.024973
514.496663
429.500008
342.816501
257.613485
171.176548
85.747911
-0.458531
-86.140220
-172.075602
-258.065412
-343.613500
-430.144814
-514.709206
-600.028455
588.359042
502.928775
419.745231
335.037619
251.718159
167.354556
83.726032
-0.373601
-84.252962
-168.117618
-252.211761
-335.808314
-420.326321
-503.062354
-586.544922
574.708811
491.191324
409.929544
327.232446
245.838718
163.383179
81.797426
-0.432151
-82.266121
-164.268763
-246.356488
-328.019383
-410.557186
-491.405774
-572.677868
561.048991
479.598992
400.111377
319.492741
239.975066
159.562713
79.821755
-0.377927
-80.319600
-160.328072
-240.475839
-320.226032
-400.781198
-479.686431
-559.208895
547.384636
467.886612
390.364592
311.667393
234.099855
155.626266
77.853892
-0.416167
-78.367019
-156.439409
-234.614568
-312.437363
-390.974938
-468.073382
-545.423405
533.730537
456.238915
380.518292
303.933692
228.225353
151.764935
75.904579
-0.388154
-76.416394
-152.536948
-228.757958
-304.631734
-381.246610
-456.324616
-531.812843
520.084247
444.569207
370.790043
296.104091
222.357189
147.860577
73.940609
-0.389972
-74.473777
-148.642526
-222.885142
-296.856935
-371.412377
-444.692673
-518.167412
506.427567
432.901206
360.951297
288.347462
216.487631
143.977110
71.991519
-0.386965
-72.512084
-144.735409
-217.040207
-289.032962
-361.667398
-432.972331
-504.475487
492.758509
421.213879
351.189584
280.535087
210.616858
140.076828
70.026111
-0.374873
-70.560136
-140.838044
-211.166260
-281.257816
-351.884917
-421.305490
-490.858960
479.094095
409.525749
341.401542
272.758915
204.739840
136.186020
68.068567
-0.378017
-68.608745
-136.935951
-205.322174
-273.463194
-342.131589
-409.613484
-477.155855
465.446610
397.866549
331.619149
264.964552
198.882941
132.294189
66.118094
-0.379504
-66.667752
-133.026613
-199.438873
-265.643828
-332.338703
-397.906825
-463.529463
451.768973
386.177036
321.834654
257.168595
193.010663
128.381335
64.139102
-0.381277
-64.714141
-129.133500
-193.598619
-257.850805
-322.572929
-386.232749
-449.860510
438.132704
374.502413
312.055535
249.373374
187.142749
124.490210
62.203593
-0.366905
-62.756912
-125.235826
-187.731656
-250.055102
-312.816087
-374.522472
-436.197968
424.458062
362.817417
302.285187
241.572400
181.294362
120.607669
60.243915
-0.361739
-60.817545
-121.318623
-181.880879
-242.263776
-303.030150
-362.827256
-422.541170
410.796557
351.126402
292.520256
233.792529
175.421099
116.709418
58.293748
-0.362356
-58.875144
-117.433644
-176.013190
-234.430637
-293.271462
-351.127660
-408.865276
397.145042
339.440750
282.747068
225.980770
169.552944
112.791159
56.339577
-0.350129
-56.899324
-113.517625
-170.142722
-226.644810
-283.508384
-339.433020
-395.228871
383.453971
327.730442
272.978886
218.201215
163.694580
108.910777
54.359476
-0.348329
-54.961156
-109.610045
-164.315048
-218.854935
-273.744697
-327.740986
-381.562230
369.824886
316.042633
263.196100
210.397817
157.835440
104.998231
52.414590
-0.353910
-52.998856
-105.730254
-158.444671
-211.043364
-263.970467
-316.032637
-367.898413
356.151546
304.344991
253.423968
202.599100
151.961126
101.104098
50.468391
-0.334897
-51.063310
-101.795631
-152.571670
-203.236285
-254.216524
-304.337441
-354.246007
342.518332
292.653917
243.658856
194.804962
146.119904
97.213558
48.515903
-0.358879
-49.087910
-97.873397
-146.705743
-195.416076
-244.425591
-292.626587
-340.578221
328.848833
280.968741
233.880801
186.994557
140.244555
93.306658
46.545878
-0.364028
-47.163573
-94.037184
-140.886404
-187.639308
-234.694540
-280.925085
-326.917720
315.163755
269.237412
224.109308
179.196477
134.401248
89.421181
44.610013
-0.336033
-45.212010
-90.113660
-135.031348
-179.824101
-224.908768
-269.230583
-313.259617
301.520453
257.558461
214.338590
171.386356
128.501146
85.503395
42.645411
-0.372528
-43.259240
-86.188930
-129.159301
-172.039863
-215.157529
-257.531970
-299.602037
287.838916
245.864426
204.600837
163.604437
122.677429
81.628089
40.693599
-0.364738
-41.299231
-82.270437
-123.298133
-164.205720
-205.388174
-245.808975
-285.936714
274.214793
234.172135
194.818708
155.798380
116.796388
77.688430
38.739320
-0.354535
-39.379825
-78.406133
-117.468422
-156.439379
-195.625986
-234.118766
-272.279333
260.541836
222.467412
185.055374
148.007976
110.957247
73.830311
36.834434
-0.315192
-37.374071
-74.458174
-111.551575
-148.574092
-185.861995
-222.400136
-258.609006
246.839621
210.732286
175.279869
140.172052
105.083014
69.892736
34.829364
-0.324324
-35.448141
-70.573417
-105.713547
-140.810134
-176.103167
-210.728672
-244.955381
233.214696
199.071702
165.517926
132.394565
99.245781
65.991534
32.867811
-0.362402
-33.535246
-66.705956
-99.889363
-133.017835
-166.349889
-198.979114
-231.284636
219.516288
187.330833
155.772103
124.585769
93.413619
62.149580
30.978454
-0.301787
-31.494515
-62.736560
-93.948442
-125.130875
-156.510499
-187.278202
-217.628367
205.899800
175.674276
145.994301
116.766240
87.478161
58.169409
28.917551
-0.404706
-29.678906
-58.970811
-88.255439
-117.471073
-146.879284
-175.633508
-203.992281
192.199170
163.889617
136.236845
109.007250
81.741179
54.372051
27.119221
-0.247822
-27.522021
-54.917152
-82.217546
-109.515214
-136.988110
-163.829404
-190.236278
178.567789
152.218058
126.418862
101.110294
75.718051
50.293493
24.976750
-0.428990
-25.796663
-51.148633
-76.547807
-101.897139
-127.383989
-152.263756
-176.693479
164.963479
140.595237
116.794510
93.485225
70.080596
46.606469
23.250664
-0.239495
-23.592122
-47.046052
-70.451169
-93.872030
-117.472449
-140.384952
-162.906949
151.169129
128.724256
106.876685
85.465833
64.003289
42.507087
21.058595
-0.402444
-21.898858
-43.368736
-64.837969
-86.237196
-107.826866
-128.905362
-149.401525
137.647686
117.186885
97.259308
77.834242
58.337583
38.755346
19.304566
-0.287959
-19.740184
-39.312566
-58.792357
-78.330570
-97.958753
-116.967038
-135.577470
123.850880
105.335192
87.380690
69.948757
52.363251
34.842668
17.223977
-0.323304
-17.871836
-35.409316
-52.981218
-70.515905
-88.226020
-105.415609
-122.005559
110.350574
93.803959
77.731072
62.093228
46.482525
30.785652
15.267361
-0.456356
-16.021309
-31.690786
-47.260639
-62.902396
-78.567792
-93.710455
-108.401887
96.702113
82.044726
68.069148
54.521574
40.811426
27.204348
13.527026
-0.081623
-13.705904
-27.375670
-41.031073
-54.663296
-68.479793
-81.759947
-94.488083
82.772669
70.262415
58.098553
46.314097
34.538191
22.685898
10.956712
-0.832461
-12.507148
-24.232055
-35.868385
-47.546908
-59.259148
-70.668658
-81.315043
69.558696
58.912379
48.837977
39.175898
29.418160
19.750508
10.033966
0.266710
-9.419972
-19.191322
-28.878829
-38.671608
-48.555133
-57.844972
-66.862363
55.111473
46.888429
38.449721
30.297754
22.265887
14.409419
6.470095
-1.307641
-9.133180
-16.919319
-24.611248
-32.324978
-39.890593
-47.602007
-54.434390
41.520300
35.618439
29.449103
23.563952
17.873717
12.258547
6.552720
0.762336
-5.038966
-10.985394
-16.772025
-22.734088
-28.546158
-34.102357
-39.353733
27.098931
22.907458
17.671168
13.403732
8.859821
5.103430
0.906375
-3.075304
-6.921457
-10.980980
-14.698187
-18.437050
-21.856486
-25.262294
-28.064425
12.910783
11.278059
8.239996
6.440100
3.391734
2.054221
-0.289790
-2.136621
-3.954512
-6.064653
-7.849941
-9.770501
-11.187144
-12.766874
-14.243385
