# vtk DataFile Version 2.0
cantilever_tri3_mix
ASCII
DATASET POLYDATA
POINTS 27 float
0.000000 -6.000000 0.000000
48.000000 -6.000000 0.000000
48.000000 6.000000 0.000000
0.000000 6.000000 0.000000
6.000000 -6.000000 0.000000
12.000000 -6.000000 0.000000
18.000000 -6.000000 0.000000
24.000000 -6.000000 0.000000
30.000000 -6.000000 0.000000
36.000000 -6.000000 0.000000
42.000000 -6.000000 0.000000
48.000000 -0.000000 0.000000
42.000000 6.000000 0.000000
36.000000 6.000000 0.000000
30.000000 6.000000 0.000000
24.000000 6.000000 0.000000
18.000000 6.000000 0.000000
12.000000 6.000000 0.000000
6.000000 6.000000 0.000000
0.000000 0.000000 0.000000
6.000000 0.000000 0.000000
12.000000 0.000000 0.000000
18.000000 0.000000 0.000000
24.000000 0.000000 0.000000
30.000000 -0.000000 0.000000
36.000000 -0.000000 0.000000
42.000000 -0.000000 0.000000
POLYGONS 32 128
3 0 4 19
3 19 4 20
3 19 20 3
3 3 20 18
3 4 5 20
3 20 5 21
3 20 21 18
3 18 21 17
3 5 6 21
3 21 6 22
3 21 22 17
3 17 22 16
3 6 7 22
3 22 7 23
3 22 23 16
3 16 23 15
3 7 8 23
3 23 8 24
3 23 24 15
3 15 24 14
3 8 9 24
3 24 9 25
3 24 25 14
3 14 25 13
3 9 10 25
3 25 10 26
3 25 26 13
3 13 26 12
3 10 1 26
3 26 1 11
3 26 11 12
3 12 11 2
POINT_DATA 27
VECTORS U float
-0.000085 0.022975 0.000000
-0.013893 -0.044143 0.000000
0.004189 -0.019368 0.000000
0.000074 0.000689 0.000000
0.008560 -0.032945 0.000000
0.014249 -0.029320 0.000000
0.016922 0.009423 0.000000
0.016599 0.010089 0.000000
0.013406 0.004516 0.000000
0.007292 -0.007138 0.000000
-0.001808 -0.012870 0.000000
-0.004870 -0.031160 0.000000
0.013929 0.006005 0.000000
0.020757 0.005842 0.000000
0.024670 0.011597 0.000000
0.025597 0.011286 0.000000
0.023523 0.004746 0.000000
0.018583 -0.039869 0.000000
0.010785 -0.049363 0.000000
0.000002 0.012345 0.000000
0.009679 -0.040636 0.000000
0.016420 -0.034053 0.000000
0.020227 0.007679 0.000000
0.021095 0.011280 0.000000
0.019022 0.008604 0.000000
0.014004 -0.000092 0.000000
0.006042 -0.002853 0.000000
CELL_DATA 32
SCALARS P float 1
LOOKUP_TABLE default
1700702.275377
87721.081175
-1595374.248314
114303.359042
-165157.920623
-208530.310713
57929.379485
182211.364771
161458.573539
85846.448182
-24602.045281
-253669.450023
154822.208369
-88860.322761
-167542.562914
18750.435788
599246.237435
-294855.244556
-420998.549069
169746.006078
-476694.433542
-352004.198720
-26479.441063
399728.148428
53779.293815
284309.291979
154412.831641
-94909.254075
42604.032384
-91114.941261
32913.207282
-31044.545464
