# vtk DataFile Version 2.0
cantilever_tri3_mix
ASCII
DATASET POLYDATA
POINTS 4257 float
0.000000 -6.000000 0.000000
48.000000 -6.000000 0.000000
48.000000 6.000000 0.000000
0.000000 6.000000 0.000000
0.375000 -6.000000 0.000000
0.750000 -6.000000 0.000000
1.125000 -6.000000 0.000000
1.500000 -6.000000 0.000000
1.875000 -6.000000 0.000000
2.250000 -6.000000 0.000000
2.625000 -6.000000 0.000000
3.000000 -6.000000 0.000000
3.375000 -6.000000 0.000000
3.750000 -6.000000 0.000000
4.125000 -6.000000 0.000000
4.500000 -6.000000 0.000000
4.875000 -6.000000 0.000000
5.250000 -6.000000 0.000000
5.625000 -6.000000 0.000000
6.000000 -6.000000 0.000000
6.375000 -6.000000 0.000000
6.750000 -6.000000 0.000000
7.125000 -6.000000 0.000000
7.500000 -6.000000 0.000000
7.875000 -6.000000 0.000000
8.250000 -6.000000 0.000000
8.625000 -6.000000 0.000000
9.000000 -6.000000 0.000000
9.375000 -6.000000 0.000000
9.750000 -6.000000 0.000000
10.125000 -6.000000 0.000000
10.500000 -6.000000 0.000000
10.875000 -6.000000 0.000000
11.250000 -6.000000 0.000000
11.625000 -6.000000 0.000000
12.000000 -6.000000 0.000000
12.375000 -6.000000 0.000000
12.750000 -6.000000 0.000000
13.125000 -6.000000 0.000000
13.500000 -6.000000 0.000000
13.875000 -6.000000 0.000000
14.250000 -6.000000 0.000000
14.625000 -6.000000 0.000000
15.000000 -6.000000 0.000000
15.375000 -6.000000 0.000000
15.750000 -6.000000 0.000000
16.125000 -6.000000 0.000000
16.500000 -6.000000 0.000000
16.875000 -6.000000 0.000000
17.250000 -6.000000 0.000000
17.625000 -6.000000 0.000000
18.000000 -6.000000 0.000000
18.375000 -6.000000 0.000000
18.750000 -6.000000 0.000000
19.125000 -6.000000 0.000000
19.500000 -6.000000 0.000000
19.875000 -6.000000 0.000000
20.250000 -6.000000 0.000000
20.625000 -6.000000 0.000000
21.000000 -6.000000 0.000000
21.375000 -6.000000 0.000000
21.750000 -6.000000 0.000000
22.125000 -6.000000 0.000000
22.500000 -6.000000 0.000000
22.875000 -6.000000 0.000000
23.250000 -6.000000 0.000000
23.625000 -6.000000 0.000000
24.000000 -6.000000 0.000000
24.375000 -6.000000 0.000000
24.750000 -6.000000 0.000000
25.125000 -6.000000 0.000000
25.500000 -6.000000 0.000000
25.875000 -6.000000 0.000000
26.250000 -6.000000 0.000000
26.625000 -6.000000 0.000000
27.000000 -6.000000 0.000000
27.375000 -6.000000 0.000000
27.750000 -6.000000 0.000000
28.125000 -6.000000 0.000000
28.500000 -6.000000 0.000000
28.875000 -6.000000 0.000000
29.250000 -6.000000 0.000000
29.625000 -6.000000 0.000000
30.000000 -6.000000 0.000000
30.375000 -6.000000 0.000000
30.750000 -6.000000 0.000000
31.125000 -6.000000 0.000000
31.500000 -6.000000 0.000000
31.875000 -6.000000 0.000000
32.250000 -6.000000 0.000000
32.625000 -6.000000 0.000000
33.000000 -6.000000 0.000000
33.375000 -6.000000 0.000000
33.750000 -6.000000 0.000000
34.125000 -6.000000 0.000000
34.500000 -6.000000 0.000000
34.875000 -6.000000 0.000000
35.250000 -6.000000 0.000000
35.625000 -6.000000 0.000000
36.000000 -6.000000 0.000000
36.375000 -6.000000 0.000000
36.750000 -6.000000 0.000000
37.125000 -6.000000 0.000000
37.500000 -6.000000 0.000000
37.875000 -6.000000 0.000000
38.250000 -6.000000 0.000000
38.625000 -6.000000 0.000000
39.000000 -6.000000 0.000000
39.375000 -6.000000 0.000000
39.750000 -6.000000 0.000000
40.125000 -6.000000 0.000000
40.500000 -6.000000 0.000000
40.875000 -6.000000 0.000000
41.250000 -6.000000 0.000000
41.625000 -6.000000 0.000000
42.000000 -6.000000 0.000000
42.375000 -6.000000 0.000000
42.750000 -6.000000 0.000000
43.125000 -6.000000 0.000000
43.500000 -6.000000 0.000000
43.875000 -6.000000 0.000000
44.250000 -6.000000 0.000000
44.625000 -6.000000 0.000000
45.000000 -6.000000 0.000000
45.375000 -6.000000 0.000000
45.750000 -6.000000 0.000000
46.125000 -6.000000 0.000000
46.500000 -6.000000 0.000000
46.875000 -6.000000 0.000000
47.250000 -6.000000 0.000000
47.625000 -6.000000 0.000000
48.000000 -5.625000 0.000000
48.000000 -5.250000 0.000000
48.000000 -4.875000 0.000000
48.000000 -4.500000 0.000000
48.000000 -4.125000 0.000000
48.000000 -3.750000 0.000000
48.000000 -3.375000 0.000000
48.000000 -3.000000 0.000000
48.000000 -2.625000 0.000000
48.000000 -2.250000 0.000000
48.000000 -1.875000 0.000000
48.000000 -1.500000 0.000000
48.000000 -1.125000 0.000000
48.000000 -0.750000 0.000000
48.000000 -0.375000 0.000000
48.000000 -0.000000 0.000000
48.000000 0.375000 0.000000
48.000000 0.750000 0.000000
48.000000 1.125000 0.000000
48.000000 1.500000 0.000000
48.000000 1.875000 0.000000
48.000000 2.250000 0.000000
48.000000 2.625000 0.000000
48.000000 3.000000 0.000000
48.000000 3.375000 0.000000
48.000000 3.750000 0.000000
48.000000 4.125000 0.000000
48.000000 4.500000 0.000000
48.000000 4.875000 0.000000
48.000000 5.250000 0.000000
48.000000 5.625000 0.000000
47.625000 6.000000 0.000000
47.250000 6.000000 0.000000
46.875000 6.000000 0.000000
46.500000 6.000000 0.000000
46.125000 6.000000 0.000000
45.750000 6.000000 0.000000
45.375000 6.000000 0.000000
45.000000 6.000000 0.000000
44.625000 6.000000 0.000000
44.250000 6.000000 0.000000
43.875000 6.000000 0.000000
43.500000 6.000000 0.000000
43.125000 6.000000 0.000000
42.750000 6.000000 0.000000
42.375000 6.000000 0.000000
42.000000 6.000000 0.000000
41.625000 6.000000 0.000000
41.250000 6.000000 0.000000
40.875000 6.000000 0.000000
40.500000 6.000000 0.000000
40.125000 6.000000 0.000000
39.750000 6.000000 0.000000
39.375000 6.000000 0.000000
39.000000 6.000000 0.000000
38.625000 6.000000 0.000000
38.250000 6.000000 0.000000
37.875000 6.000000 0.000000
37.500000 6.000000 0.000000
37.125000 6.000000 0.000000
36.750000 6.000000 0.000000
36.375000 6.000000 0.000000
36.000000 6.000000 0.000000
35.625000 6.000000 0.000000
35.250000 6.000000 0.000000
34.875000 6.000000 0.000000
34.500000 6.000000 0.000000
34.125000 6.000000 0.000000
33.750000 6.000000 0.000000
33.375000 6.000000 0.000000
33.000000 6.000000 0.000000
32.625000 6.000000 0.000000
32.250000 6.000000 0.000000
31.875000 6.000000 0.000000
31.500000 6.000000 0.000000
31.125000 6.000000 0.000000
30.750000 6.000000 0.000000
30.375000 6.000000 0.000000
30.000000 6.000000 0.000000
29.625000 6.000000 0.000000
29.250000 6.000000 0.000000
28.875000 6.000000 0.000000
28.500000 6.000000 0.000000
28.125000 6.000000 0.000000
27.750000 6.000000 0.000000
27.375000 6.000000 0.000000
27.000000 6.000000 0.000000
26.625000 6.000000 0.000000
26.250000 6.000000 0.000000
25.875000 6.000000 0.000000
25.500000 6.000000 0.000000
25.125000 6.000000 0.000000
24.750000 6.000000 0.000000
24.375000 6.000000 0.000000
24.000000 6.000000 0.000000
23.625000 6.000000 0.000000
23.250000 6.000000 0.000000
22.875000 6.000000 0.000000
22.500000 6.000000 0.000000
22.125000 6.000000 0.000000
21.750000 6.000000 0.000000
21.375000 6.000000 0.000000
21.000000 6.000000 0.000000
20.625000 6.000000 0.000000
20.250000 6.000000 0.000000
19.875000 6.000000 0.000000
19.500000 6.000000 0.000000
19.125000 6.000000 0.000000
18.750000 6.000000 0.000000
18.375000 6.000000 0.000000
18.000000 6.000000 0.000000
17.625000 6.000000 0.000000
17.250000 6.000000 0.000000
16.875000 6.000000 0.000000
16.500000 6.000000 0.000000
16.125000 6.000000 0.000000
15.750000 6.000000 0.000000
15.375000 6.000000 0.000000
15.000000 6.000000 0.000000
14.625000 6.000000 0.000000
14.250000 6.000000 0.000000
13.875000 6.000000 0.000000
13.500000 6.000000 0.000000
13.125000 6.000000 0.000000
12.750000 6.000000 0.000000
12.375000 6.000000 0.000000
12.000000 6.000000 0.000000
11.625000 6.000000 0.000000
11.250000 6.000000 0.000000
10.875000 6.000000 0.000000
10.500000 6.000000 0.000000
10.125000 6.000000 0.000000
9.750000 6.000000 0.000000
9.375000 6.000000 0.000000
9.000000 6.000000 0.000000
8.625000 6.000000 0.000000
8.250000 6.000000 0.000000
7.875000 6.000000 0.000000
7.500000 6.000000 0.000000
7.125000 6.000000 0.000000
6.750000 6.000000 0.000000
6.375000 6.000000 0.000000
6.000000 6.000000 0.000000
5.625000 6.000000 0.000000
5.250000 6.000000 0.000000
4.875000 6.000000 0.000000
4.500000 6.000000 0.000000
4.125000 6.000000 0.000000
3.750000 6.000000 0.000000
3.375000 6.000000 0.000000
3.000000 6.000000 0.000000
2.625000 6.000000 0.000000
2.250000 6.000000 0.000000
1.875000 6.000000 0.000000
1.500000 6.000000 0.000000
1.125000 6.000000 0.000000
0.750000 6.000000 0.000000
0.375000 6.000000 0.000000
0.000000 5.625000 0.000000
0.000000 5.250000 0.000000
0.000000 4.875000 0.000000
0.000000 4.500000 0.000000
0.000000 4.125000 0.000000
0.000000 3.750000 0.000000
0.000000 3.375000 0.000000
0.000000 3.000000 0.000000
0.000000 2.625000 0.000000
0.000000 2.250000 0.000000
0.000000 1.875000 0.000000
0.000000 1.500000 0.000000
0.000000 1.125000 0.000000
0.000000 0.750000 0.000000
0.000000 0.375000 0.000000
0.000000 0.000000 0.000000
0.000000 -0.375000 0.000000
0.000000 -0.750000 0.000000
0.000000 -1.125000 0.000000
0.000000 -1.500000 0.000000
0.000000 -1.875000 0.000000
0.000000 -2.250000 0.000000
0.000000 -2.625000 0.000000
0.000000 -3.000000 0.000000
0.000000 -3.375000 0.000000
0.000000 -3.750000 0.000000
0.000000 -4.125000 0.000000
0.000000 -4.500000 0.000000
0.000000 -4.875000 0.000000
0.000000 -5.250000 0.000000
0.000000 -5.625000 0.000000
0.375000 -5.625000 0.000000
0.375000 -5.250000 0.000000
0.375000 -4.875000 0.000000
0.375000 -4.500000 0.000000
0.375000 -4.125000 0.000000
0.375000 -3.750000 0.000000
0.375000 -3.375000 0.000000
0.375000 -3.000000 0.000000
0.375000 -2.625000 0.000000
0.375000 -2.250000 0.000000
0.375000 -1.875000 0.000000
0.375000 -1.500000 0.000000
0.375000 -1.125000 0.000000
0.375000 -0.750000 0.000000
0.375000 -0.375000 0.000000
0.375000 0.000000 0.000000
0.375000 0.375000 0.000000
0.375000 0.750000 0.000000
0.375000 1.125000 0.000000
0.375000 1.500000 0.000000
0.375000 1.875000 0.000000
0.375000 2.250000 0.000000
0.375000 2.625000 0.000000
0.375000 3.000000 0.000000
0.375000 3.375000 0.000000
0.375000 3.750000 0.000000
0.375000 4.125000 0.000000
0.375000 4.500000 0.000000
0.375000 4.875000 0.000000
0.375000 5.250000 0.000000
0.375000 5.625000 0.000000
[...]
POINT_DATA 4257
SCALARS P float
LOOKUP_TABLE default
47150048378328.992188
-946.323745
1663.548510
-4910154953147.675781
49333444562261.312500
37740908470676.085938
3666279921974.234375
-1074138208935.916016
1343203473054.416016
-3238530904589.818848
-23399186130713.882812
-19938710632476.148438
-3889437481243.449219
-1809929704170.475830
-5819850448076.327148
-3833202107697.691406
-786059133098.729126
4487967276577.210938
3338446203477.134277
-2403405916192.439941
-2261482786013.876465
3970802017968.494629
-1270248752262.139404
4233666985004.962891
12467868302134.365234
4039269174615.469238
-7812637751404.601562
-2199745878788.920898
1449631593252.070068
1426611665954.125732
6212822437013.750000
1165320755784.515625
316835297177.030945
3495952402061.335449
-2792209482425.131348
511303317833.141602
780455693194.305542
570759022452.396606
-580646967493.603027
717869298305.386841
717383669601.054199
-144793715436.170135
-290068111745.599792
460156658465.616211
75560997114.353561
-485203154157.080139
-368342792461.800964
98077279538.554520
280224677909.904724
203859671996.907623
83631548609.007111
75267001518.995743
-115624053788.700317
15559724290.994802
-156690022609.764038
67658788160.475983
-47260414891.594322
-25514802890.943928
27093546994.849842
14456320831.174513
-3214065940.389898
-23765803893.661053
-2828886265.059069
-15356525678.650215
-11497478075.943567
560934134.904481
-3206494471.782080
-594345828.450253
-187032021.718413
-3433999081.201059
-1494837979.912572
763748254.852183
-2179836536.127406
687248914.295558
-1435554632.799643
488206672.963331
11903609.910060
-1153135541.304413
-62401732.966722
-552533101.739919
64827098.631340
241455051.933175
-350306281.513447
-89134460.489016
83799021.437641
-2779949.226335
-6982252.369459
-31301448.604685
8269272.368617
-9630059.318586
8934773.547380
14000668.065698
30671938.936298
-6065714.227308
7735677.237228
-22782593.236947
21970542.356829
2446485.971523
1179410.896119
-9839296.190730
6667319.900863
218134.135698
2596740.363048
-790781.566571
-17399.920248
990541.348986
-1066387.716775
-611518.218342
652317.315633
-408920.544611
819218.466825
-177219.523403
-117960.952810
199828.034134
-13378.473511
28043.379793
-52714.611355
69212.253567
-116552.157130
-37061.372978
5178.780051
-27167.348794
28810.113291
9850.695482
-7220.714419
407.986192
-953.515754
-4947.524052
1320.307298
-9050.064644
3125.250876
-1662.521059
908.690706
-409.272764
-375.755873
653.472704
-108.951368
803.272491
160.782961
-562.681941
545.036594
83.885510
173.954097
978.399240
914.545307
346.919767
695.918676
-345.236926
350.195015
-1148.961600
98.685341
-433.999664
92.309524
709.929747
-176.461501
275.689621
-387.630343
-836.146296
913.013879
721.729880
-466.255547
159.765140
-375.947348
2010.210243
-434.705232
-1350.037840
1164.110326
3931.762008
-3710.942955
-10988.785114
13527.970227
-14473.067001
22474.624867
-1746.844381
2058.252107
-62348.488338
-81479.661650
29291.419417
100984.203481
-229674.388387
30125.688423
-37780.348160
47174.742436
-277037.565407
-121513.822316
785779.481897
-1169169.904099
1987509.349344
437105.780698
-162769.910694
-41093.367816
-1262580.342395
1148679.911459
2683685.663603
-2369619.759452
-2026286.686599
6006921.978610
535888.863498
935085.880383
7616346.706623
3090375.144833
3635458.365960
-17494974.162817
10399075.207815
-1333479.306078
-46855517.090936
2405850.132421
14847765.180670
30575895.129386
24478396.949230
-19250931.358048
50975031.492182
102254912.637048
-36967274.338030
36201294.645524
151068870.186674
99120604.335569
173736776.215722
286489148.312926
26664748.332951
-30893051.695283
499939021.257887
70475335.310166
208552041.481486
1029195853.562976
711844725.880926
1177599154.066737
-1938220215.902288
1003138924.147335
6849351882.030014
4990735503.423862
865793560.665045
-11668322486.885740
2702641843.751471
9765095684.001480
-9481572906.451694
-58603221921.388176
-3698274581.873734
22502725946.439404
4521549262.380036
-67958693736.659264
112940121772.165726
-39975513688.268791
33831262459.934139
103857027505.769836
184942563470.914398
144043830979.218170
-211511569354.024658
-363731977822.936035
-35588608666.588158
148347653090.295746
-141832093359.477203
-668780256221.712769
-350760227727.072571
-1009880662709.166016
93256926457.915970
326629547359.141663
1381118992013.586914
773596184219.495728
591839836334.004883
-212841362827.671967
468167752369.366272
-849688101638.129761
-685903334505.166260
-1450952105625.391357
-490343233934.825439
3851327502188.333496
57678281213.070312
-4841243492616.075195
-1859063520192.073486
635661647248.892944
2746485004301.442871
-1631321778570.144287
3731152406671.851074
3329501381807.722656
112817771092.307297
-2226027406787.102051
3915352012193.818848
-2204704255832.482422
-195452291539.319336
-1355905097323.869385
3555502214880.001465
4404306121502.330078
8322524251464.926758
4336973203381.359863
5990546211048.534180
-4105606319323.402344
-11108095792966.173828
467924919513.682312
-9966515059679.208984
-8437423005232.953125
-1699376108519.666748
-11878894682294.841797
-13067912849400.095703
-7922446100205.445312
18275240832940.722656
7170639158629.390625
15363833478432.640625
13626836331360.078125
-67846090837903.601562
7267044842956.713867
53083245040941.562500
-18614939101012.402344
-3279137397406.603027
36744350365483.117188
30169076850399.238281
-23739982496851.050781
-78623985716801.062500
-20647604881534.578125
-38550094511327.648438
9855197636669.693359
45179200362732.367188
6057020400153.252930
-12975826888349.289062
7631387562641.598633
53327369698649.617188
53244867316726.531250
38639708122088.593750
-2537148155745.481934
14793651797992.304688
-3432577698780.018066
-24191107325462.093750
1649660442246.131592
6786935460178.907227
-23619431817818.078125
-18040859560151.199219
-2063269128931.952148
3713498011950.950684
-7152320974043.252930
-18203387743620.062500
-216391464556.203125
-20534966896538.796875
-42818119013346.773438
2971825883471.755859
23802023559839.000000
17036202324533.619141
-12680824159057.775391
8874620831704.792969
24570839310096.261719
-19008780286768.496094
-23056809904481.785156
28065791381300.062500
-20275895444621.097656
17225989786615.376953
6768531444292.877930
-12012015131530.806641
-11692531549881.800781
1080613625270.517578
1883367536309.291260
-2834933548901.177734
3400660434006.135254
-21376567088827.027344
-16015438119570.146484
-4820573462498.863281
-19030543530641.957031
-6327807537836.325195
4298563072997.829590
4059480457874.856934
-242558288376.950531
-17925708299804.781250
14778263160396.255859
10562304819891.630859
-2549938999747.353027
-12094704417.807291
2619381792043.837402
15980850277638.505859
18444171744533.628906
1000928642238.078125
-9418883484469.771484
-14556563894846.103516
-14216933664232.132812
-4762130210236.964844
3780460083897.789062
8433223998499.124023
16905374896481.021484
4645083622980.553711
-1079790883391.078491
6077935945240.534180
1451508054214.243164
-988933155240.369141
-526962944470.660828
-721246702749.464844
4893921937458.499023
-5645666665225.672852
-19946039053161.968750
-4003454285048.308594
13163246584293.125000
3363834723765.054199
-632515711187.132446
-20697127231662.886719
-14989727635721.359375
3651998041603.308594
-16051376315720.484375
4702668753842.695312
9564646930320.810547
-99640285534.282547
11661393182137.626953
-7085520467253.539062
22290241738977.312500
6591752244397.320312
12831373088416.570312
-4122204034838.886230
-3551473734797.926270
-1087934291036.307617
-825733458975.252319
-9151705972166.804688
-3469296699980.914551
-7154713457563.840820
-7818349403750.372070
-8006739150808.446289
-5224626306044.793945
515563005793.824402
-4231513241562.787109
14734653126829.255859
-2043984654542.410889
8143223042666.084961
7787134834869.311523
4243422506394.554688
-17320340923922.259766
-91187747896.562500
9233772895367.306641
-708017905140.863892
-10454933899649.527344
5442336974550.604492
15591204925200.710938
-3231354321677.775879
19111843419324.527344
5128032817727.324219
-11934983742182.601562
13708131415496.554688
-233510434924.358063
-2543022597868.202148
-2314284908853.796387
2032684395976.731689
3841567678894.354004
-2313800703865.093750
5126739034971.249023
-3746231135950.716797
-1323769114568.764893
3096617346451.276855
1210971900774.064453
8511620966760.362305
-3322350508331.056152
-71785353377.040359
12409957855960.318359
-3400990926756.564453
7434229762915.851562
-3031810961919.252441
-5213404578302.751953
6811087400608.741211
1679169422952.113281
-13595202703359.984375
-2255333280179.232422
23051972364092.105469
12682470399491.826172
-15868234494228.544922
3454897121768.824219
15387853405181.216797
-8349035936920.959961
-21364559335826.273438
3429363442248.394531
1522649533535.426514
6766722476043.338867
-4398608558395.066406
-179927029441.149902
1215100942866.410400
6805523864261.661133
-1960221315924.680908
-5083518462467.039062
10423985822766.835938
758068688231.151367
6943085532083.838867
3591937348604.308105
-1337212824795.657227
4472686697757.104492
-995836959064.829712
-6829189164027.666992
-2350299983994.171387
-2595454020519.196777
6264947169180.344727
-1548979348959.241455
-10173798622254.025391
1382636809763.857178
10260642806680.744141
2265308735766.170410
-7245870839101.725586
-5212973425111.925781
12678220161535.251953
3332361554498.091797
-11015399854463.716797
-13443331504622.576172
-3279157346143.395020
4718238272304.348633
6075880088810.898438
-7180279866520.971680
-817581007521.354126
6777419401099.175781
-2505659187971.634277
-4906605128347.622070
13029828550574.447266
16633617139404.515625
2723482435003.290527
-4109492066706.475098
-4374092776806.777344
259423815605.457886
3568282275843.100098
5884688165210.367188
2549939355517.294922
-3950921722200.099609
-3535859210834.379395
-5386576095643.780273
34830343918.375328
-1514582406208.550049
10973487206590.025391
936970294110.664429
-2953337105350.433105
279498176613.545410
7429513156711.756836
4175447597144.695312
5297536567263.360352
1176645876748.481201
-8922965175109.648438
-3822255629312.411621
4558349794682.680664
9336808134080.873047
-6424147756701.351562
-2220920239003.340332
-2785593702507.675293
-2244239317901.553223
-4499028270200.428711
10213442586568.607422
1472128990942.424561
-7100297167901.008789
-10946554775760.376953
5909128524649.406250
4318363915550.993652
1057918355422.772827
7663211801917.387695
-6042975895874.598633
-5190370320087.991211
-444815268224.946350
2594477942016.828125
4846130890831.848633
8434434330937.799805
7164093527732.140625
-682306826197.037720
-714808507599.027954
-4520849486061.499023
-1505490318044.999023
-1072612113611.368774
6179441734896.174805
-4055837133359.500488
-13634421060791.361328
189578084742.043610
4479915687896.625977
-443297848410.381897
-7862923366764.415039
-4071077506898.761719
7744592762878.696289
3626648491487.662598
-2794077628414.349121
-3059999569999.960938
-16207323249955.458984
-2071510555883.000000
8422090545634.335938
7701281358961.062500
-6961001700780.325195
-894966921769.726440
-7262930300308.496094
1792918558580.899658
11200986172199.822266
-369597646048.361328
1151805012177.358398
5805382480574.948242
7914116517814.250000
1480524599835.954834
-6539026280668.750977
-2221306138051.425781
-6445035550069.721680
-960414715658.028320
4024149498500.343750
9562892243988.048828
-3997444265414.375000
3137828749031.337402
6038778579048.487305
-6250376569782.311523
-4646118076604.432617
-103265290330.317062
4617375527913.783203
8727394486584.101562
661293089429.382812
-1887923988968.090576
-3731308742230.195801
8027776045476.902344
8946018987387.314453
-114431815894.302078
-11426308185203.029297
-4805533925214.546875
4973567343106.086914
-6067856224713.574219
3320045480722.625488
1314972483586.239258
4371981101777.890625
-1313721978452.214600
-1242444446233.207275
223073928678.061676
-4758657165939.990234
1210847607646.832275
8445744272796.784180
7541655291780.067383
9300799803147.451172
7694341276687.338867
-5287108067875.061523
-1458642633247.997559
11438046097491.361328
-3451644238864.895020
-2774834082838.470215
-921724036685.567383
3729348881959.833984
-2455028515004.241211
3189200387751.811035
-2380141578035.350098
1258998588264.004639
-1881016888136.561279
-11185521263041.857422
-8742539839290.698242
-3281903972850.093750
-375291969427.883972
1737062234990.885986
2010813428408.425537
1581076262660.690674
2320591360146.130371
708172090537.429321
-1835238647363.214844
-6810416824330.079102
-1965926493671.242432
2908208513660.908691
-1572024368442.737305
2987418493533.092285
-7298309331034.536133
11053756054209.289062
4076145066761.316406
10424148141780.761719
-3194384758790.118652
1641162794503.692139
2323925650554.711914
3066047482292.681641
5328302504618.365234
-1153015831520.611572
-1917512308886.427002
9458405013750.107422
-4549239504455.696289
-4610355120018.309570
-5267693814206.620117
-1511440048958.927979
-1717104924474.180420
3030879103553.736816
2128233124314.222656
1302115168526.754395
8043479162688.833008
-1799327538539.935547
2121119702031.003662
4639426515469.474609
-3267425238450.507324
-2614950002944.472168
-2329095467593.906250
-2605187215528.167480
-6066287045843.536133
242870794543.840485
-4846529759758.125000
297920069283.666992
1080554011560.011719
-1742713823732.227783
-6841331778665.209961
-4147206102417.627441
6085445566743.816406
3808029158418.707520
-3251517159413.842285
-8853451355994.732422
-5530396445761.948242
8320902973899.355469
-5007571840603.229492
-12027412196851.626953
-1055113834343.899902
2555011374518.114746
-2487838589019.113770
-7349777369637.690430
2509566429030.825684
3584592341542.708984
2542094148100.111816
813428606994.168945
-8153295097602.758789
2287977932232.191895
5002082458702.188477
1635645853904.523438
2169115317157.964111
1673636195080.150146
-6337280419010.027344
-2756595452650.799805
3942370547737.382324
5045130530435.399414
5746517017798.957031
-6139391210512.070312
-9808534267848.626953
-10824488787044.099609
-4404349453358.229492
-2976687971947.574707
-7108554399873.670898
77224780844.284836
-4584558292028.022461
1102548237501.357178
4603512419960.099609
-4489249074891.130859
8021317545792.934570
4353163486018.969238
4753232989642.235352
358750771572.819275
13872842326183.978516
2597482622665.308105
-5635466339700.231445
-6418889563151.309570
-372651799643.195618
1284096844903.519775
-4741071128297.650391
-6827362253242.702148
5315887438036.303711
776809685563.076538
4855720442113.132812
-836238666863.822388
3120144301573.584473
-4109110684071.338379
-3274031949103.419434
-3705869788480.695801
-5298911730476.680664
-6557037245362.578125
8657679393109.399414
15666479280748.193359
2758041128741.147949
3679286556580.490723
-1640339473942.256104
-6966117059783.750977
6270164560568.002930
5321055493347.760742
4080423950151.985840
-2705287944765.271973
-7895652465725.812500
4159974029679.055176
-1647209807774.496826
-3590400084260.204590
-12982412601248.728516
-1944081478078.926514
-6852457650474.026367
8669282414243.183594
3960424497982.363770
-5205142324954.514648
-3641322937839.342285
-2380031667756.638672
-2916454734005.608887
-1104292734641.731201
4784598181462.698242
7927014266617.424805
4524397700432.261719
-2351642616936.393555
-3597995186551.810059
-8789360756941.667969
1397278452871.004150
-906264226056.726196
-8962011452779.857422
-5324649671269.311523
3764858013935.331543
768033192965.141235
-3963899905530.654297
4301883671137.199707
-1215758421292.566406
-9580221517656.361328
-3518509312563.776855
2865331374515.705566
12377860646159.218750
-3950364011224.572266
-3507070849002.649902
2552366985378.338379
-378148683163.930847
-1706935928575.814453
3744585537732.225098
-1399147235445.025635
3591655575710.052246
-1880168977678.926025
1824642697689.446533
-975872167484.288696
-2254001153177.213379
-2050072633426.750732
1048077395246.992554
6734357704604.969727
1218791398900.564697
-4190399905898.602051
1911568868622.933594
4563939866504.512695
-4886453795853.657227
-9227045167328.126953
-5865146192759.661133
-2789022693927.935059
-9232982179436.603516
3420500779418.339844
2487489441135.306152
-2015727527763.341797
5781152901948.946289
1753681091753.803467
-7065380210100.749023
-3906118522429.205566
-6191212006839.612305
6055052943955.675781
11882196786902.751953
-2828356148574.214355
840234942621.900269
-293476158394.991211
6032118266519.235352
-3044111314724.787598
803537472888.047241
1329498107855.489502
3025714264912.203125
-6702292168655.551758
-2459074858449.404785
-1355821922629.122803
8328398668540.812500
4470179674508.731445
3844772889773.074707
10174573553961.302734
1785822287348.536133
1714103895555.879639
4765991672136.768555
7584728792351.586914
76673108536.472900
4407804611258.432617
7300414644126.843750
-3119145835627.691406
1470387618571.489502
4329145322186.036621
-2641442713384.662109
-3964476161333.254395
-2851424041836.560059
3289024336249.841797
5154905117059.059570
2127879587040.916992
-5008349922090.737305
-1868340227228.621094
-588331282110.494019
-1018271542280.830688
-3387059088334.793457
-2695184283585.837402
-1809003938782.740234
-4562775924302.440430
-6925483881229.015625
-2587439021910.507812
3057162874940.107422
-58320291599.890953
-2508275968227.389160
1259172251585.882568
-2410151696880.542480
-6384516149741.652344
976780121588.713989
3139301024670.225098
5468095599025.671875
2999108436896.130371
8431878240049.282227
-275318852507.025940
2786123862531.116699
-241885536327.358551
-5034915057121.485352
-5075646900947.684570
-2792328223621.954590
5296317832313.489258
1202471878535.707764
-567832001461.960571
739818498235.217651
-752928147549.314575
-4584720461610.518555
282097402182.297302
1167626081868.366699
-1817042553027.433594
951847755246.886719
2198523505810.180420
3340565801460.367676
471246727607.265625
-792941718129.090454
-4768230059593.825195
-6433396114729.597656
1441093831541.307129
4565974796853.352539
-4004635226850.822754
1335853273657.157471
-487546243833.674805
2435927278694.230957
-5486976151474.462891
5963306014666.209961
1526458498155.398682
-1214080353463.338623
-1670617004786.542236
-5311665566196.915039
-2778451275107.967285
287700771167.302002
7359000045572.024414
7548377091195.081055
-2175976099723.085205
940107475026.921753
-5212813664861.766602
-2752700462597.879395
1996874210450.984375
2519453711548.444824
3657751432537.712402
-2214156755110.024414
-1599580278864.673584
1455351217126.256592
4934278237010.991211
2437656491511.992676
-2311629472054.830566
1216500669662.782959
298143232274.124512
3324022999331.473145
-1049225454488.056641
369728096040.858093
3151670672838.837402
2517793472602.347168
-1442664345990.436279
-1133217393485.031006
-3030147635815.126465
-8921321627683.988281
-4292362443281.837402
-2648208235589.108887
4387943582947.728027
6834448371510.645508
2572700756709.014160
5201306502251.733398
-192514236506.611481
-3902362314474.064941
-291268389281.766602
-284200261072.252625
2444416928167.087402
1661865507191.544189
756560758188.681641
1553158109915.933594
563032971534.238281
307839085211.544006
621157306874.510742
145855064131.542816
283826790651.098450
-1612154458775.415039
-1907610674243.737061
2509401100551.324707
1505324286084.899170
1974113817312.582031
3059620776346.462402
857018096640.415405
-2687962359650.152832
-182298741646.741364
659360529196.540649
2140938487807.891357
-757322687435.372070
-804991054093.574341
49957406149.580971
2415841845930.144531
3447440321733.441895
-1772126690587.043701
1257810753636.744873
-5777612729792.259766
3763057563631.166504
-1911727243351.981689
-1363522946704.577393
-5376547265170.394531
152720629061.360474
238420610590.402191
-2483626227496.643066
-1807141398597.484375
3735681821593.315918
126225826430.223633
3645777321648.132812
1804458994269.296875
303672483655.939148
519406188340.670227
-1811867942836.981201
-418775521243.138977
-53149603124.141991
-1013159398452.467773
-1874510772143.925537
-2433858752061.917969
491013314871.026367
1138193604463.693115
-4732371055057.249023