# vtk DataFile Version 2.0
cantilever_tri3_mix
ASCII
DATASET POLYDATA
POINTS 85 float
0.000000 -6.000000 0.000000
48.000000 -6.000000 0.000000
48.000000 6.000000 0.000000
0.000000 6.000000 0.000000
3.000000 -6.000000 0.000000
6.000000 -6.000000 0.000000
9.000000 -6.000000 0.000000
12.000000 -6.000000 0.000000
15.000000 -6.000000 0.000000
18.000000 -6.000000 0.000000
21.000000 -6.000000 0.000000
24.000000 -6.000000 0.000000
27.000000 -6.000000 0.000000
30.000000 -6.000000 0.000000
33.000000 -6.000000 0.000000
36.000000 -6.000000 0.000000
39.000000 -6.000000 0.000000
42.000000 -6.000000 0.000000
45.000000 -6.000000 0.000000
48.000000 -3.000000 0.000000
48.000000 -0.000000 0.000000
48.000000 3.000000 0.000000
45.000000 6.000000 0.000000
42.000000 6.000000 0.000000
39.000000 6.000000 0.000000
36.000000 6.000000 0.000000
33.000000 6.000000 0.000000
30.000000 6.000000 0.000000
27.000000 6.000000 0.000000
24.000000 6.000000 0.000000
21.000000 6.000000 0.000000
18.000000 6.000000 0.000000
15.000000 6.000000 0.000000
12.000000 6.000000 0.000000
9.000000 6.000000 0.000000
6.000000 6.000000 0.000000
3.000000 6.000000 0.000000
0.000000 3.000000 0.000000
0.000000 0.000000 0.000000
0.000000 -3.000000 0.000000
3.000000 -3.000000 0.000000
3.000000 0.000000 0.000000
3.000000 3.000000 0.000000
6.000000 -3.000000 0.000000
6.000000 0.000000 0.000000
6.000000 3.000000 0.000000
9.000000 -3.000000 0.000000
9.000000 0.000000 0.000000
9.000000 3.000000 0.000000
12.000000 -3.000000 0.000000
12.000000 0.000000 0.000000
12.000000 3.000000 0.000000
15.000000 -3.000000 0.000000
15.000000 0.000000 0.000000
15.000000 3.000000 0.000000
18.000000 -3.000000 0.000000
18.000000 0.000000 0.000000
18.000000 3.000000 0.000000
21.000000 -3.000000 0.000000
21.000000 0.000000 0.000000
21.000000 3.000000 0.000000
24.000000 -3.000000 0.000000
24.000000 -0.000000 0.000000
24.000000 3.000000 0.000000
27.000000 -3.000000 0.000000
27.000000 -0.000000 0.000000
27.000000 3.000000 0.000000
30.000000 -3.000000 0.000000
30.000000 -0.000000 0.000000
30.000000 3.000000 0.000000
33.000000 -3.000000 0.000000
33.000000 -0.000000 0.000000
33.000000 3.000000 0.000000
36.000000 -3.000000 0.000000
36.000000 -0.000000 0.000000
36.000000 3.000000 0.000000
39.000000 -3.000000 0.000000
39.000000 -0.000000 0.000000
39.000000 3.000000 0.000000
42.000000 -3.000000 0.000000
42.000000 -0.000000 0.000000
42.000000 3.000000 0.000000
45.000000 -3.000000 0.000000
45.000000 -0.000000 0.000000
45.000000 3.000000 0.000000
POLYGONS 128 512
3 0 4 39
3 39 4 40
3 39 40 38
3 38 40 41
3 38 41 37
3 37 41 42
3 37 42 3
3 3 42 36
3 4 5 40
3 40 5 43
3 40 43 41
3 41 43 44
3 41 44 42
3 42 44 45
3 42 45 36
3 36 45 35
3 5 6 43
3 43 6 46
3 43 46 44
3 44 46 47
3 44 47 45
3 45 47 48
3 45 48 35
3 35 48 34
3 6 7 46
3 46 7 49
3 46 49 47
3 47 49 50
3 47 50 48
3 48 50 51
3 48 51 34
3 34 51 33
3 7 8 49
3 49 8 52
3 49 52 50
3 50 52 53
3 50 53 51
3 51 53 54
3 51 54 33
3 33 54 32
3 8 9 52
3 52 9 55
3 52 55 53
3 53 55 56
3 53 56 54
3 54 56 57
3 54 57 32
3 32 57 31
3 9 10 55
3 55 10 58
3 55 58 56
3 56 58 59
3 56 59 57
3 57 59 60
3 57 60 31
3 31 60 30
3 10 11 58
3 58 11 61
3 58 61 59
3 59 61 62
3 59 62 60
3 60 62 63
3 60 63 30
3 30 63 29
3 11 12 61
3 61 12 64
3 61 64 62
3 62 64 65
3 62 65 63
3 63 65 66
3 63 66 29
3 29 66 28
3 12 13 64
3 64 13 67
3 64 67 65
3 65 67 68
3 65 68 66
3 66 68 69
3 66 69 28
3 28 69 27
3 13 14 67
3 67 14 70
3 67 70 68
3 68 70 71
3 68 71 69
3 69 71 72
3 69 72 27
3 27 72 26
3 14 15 70
3 70 15 73
3 70 73 71
3 71 73 74
3 71 74 72
3 72 74 75
3 72 75 26
3 26 75 25
3 15 16 73
3 73 16 76
3 73 76 74
3 74 76 77
3 74 77 75
3 75 77 78
3 75 78 25
3 25 78 24
3 16 17 76
3 76 17 79
3 76 79 77
3 77 79 80
3 77 80 78
3 78 80 81
3 78 81 24
3 24 81 23
3 17 18 79
3 79 18 82
3 79 82 80
3 80 82 83
3 80 83 81
3 81 83 84
3 81 84 23
3 23 84 22
3 18 1 82
3 82 1 19
3 82 19 83
3 83 19 20
3 83 20 84
3 84 20 21
3 84 21 22
3 22 21 2
POINT_DATA 85
VECTORS U float
-0.007931 0.040150 0.000000
-0.003337 -0.002238 0.000000
-0.002949 -0.002581 0.000000
0.003883 0.040012 0.000000
-0.007663 0.022166 0.000000
-0.007393 0.000906 0.000000
-0.007127 0.022728 0.000000
-0.006869 -0.020857 0.000000
-0.006596 -0.035939 0.000000
-0.006316 0.006167 0.000000
-0.006033 0.020368 0.000000
-0.005744 0.011545 0.000000
-0.005448 0.013567 0.000000
-0.005156 0.005129 0.000000
-0.004861 -0.000139 0.000000
-0.004560 0.008016 0.000000
-0.004256 -0.005234 0.000000
-0.003952 -0.001620 0.000000
-0.003645 -0.001879 0.000000
-0.004302 -0.002593 0.000000
-0.005142 -0.002768 0.000000
-0.003245 -0.002764 0.000000
-0.002540 -0.002214 0.000000
-0.002129 -0.001948 0.000000
-0.001716 -0.005554 0.000000
-0.001301 0.007704 0.000000
-0.000884 -0.000436 0.000000
-0.000462 0.004848 0.000000
-0.000037 0.013287 0.000000
0.000386 0.011273 0.000000
0.000815 0.020117 0.000000
0.001250 0.005934 0.000000
0.001689 -0.036154 0.000000
0.002131 -0.021038 0.000000
0.002583 0.022561 0.000000
0.003022 0.000711 0.000000
0.003445 0.021978 0.000000
0.000755 0.039785 0.000000
-0.003994 0.039722 0.000000
-0.006022 0.039841 0.000000
-0.005941 0.021850 0.000000
-0.004096 0.021718 0.000000
0.000481 0.021766 0.000000
-0.005850 0.000591 0.000000
-0.004180 0.000456 0.000000
0.000224 0.000499 0.000000
-0.005764 0.022419 0.000000
-0.004273 0.022288 0.000000
-0.000044 0.022337 0.000000
-0.005684 -0.021171 0.000000
-0.004372 -0.021306 0.000000
-0.000319 -0.021260 0.000000
-0.005589 -0.036262 0.000000
-0.004456 -0.036406 0.000000
-0.000583 -0.036369 0.000000
-0.005488 0.005839 0.000000
-0.004535 0.005691 0.000000
-0.000843 0.005722 0.000000
-0.005383 0.020036 0.000000
-0.004610 0.019883 0.000000
-0.001097 0.019910 0.000000
-0.005274 0.011208 0.000000
-0.004679 0.011051 0.000000
-0.001346 0.011072 0.000000
-0.005158 0.013228 0.000000
-0.004743 0.013068 0.000000
-0.001590 0.013088 0.000000
-0.005044 0.004790 0.000000
-0.004809 0.004630 0.000000
-0.001835 0.004649 0.000000
-0.004929 -0.000483 0.000000
-0.004872 -0.000646 0.000000
-0.002077 -0.000631 0.000000
-0.004807 0.007669 0.000000
-0.004930 0.007501 0.000000
-0.002315 0.007513 0.000000
-0.004684 -0.005583 0.000000
-0.004986 -0.005753 0.000000
-0.002550 -0.005743 0.000000
-0.004559 -0.001971 0.000000
-0.005040 -0.002143 0.000000
-0.002784 -0.002135 0.000000
-0.004431 -0.002232 0.000000
-0.005092 -0.002406 0.000000
-0.003015 -0.002400 0.000000
CELL_DATA 128
SCALARS P float 1
LOOKUP_TABLE default
-1149897.834882
-14965146434.648407
2105565.808374
-2553369219.955133
-223081.055162
-18587858208.373699
-55291.146962
-27987985452.003582
-69566981075.905228
15384454822.942970
-7952377386.027026
45297555149.207848
99937663911.592590
-84727197.389032
-1646442871.837109
18365864597.995594
31408661828.375370
-15751318844.591494
-11280253794.822966
-8445175680.106526
-2999370075.307137
-17858928005.577961
-1409081.777142
21344443624.874233
-190377814.282468
-18595363663.419323
-7473497206.531537
-29540858661.901077
-1607875779.954322
-14904249570.888010
1060652638.215807
-1028298102.883817
-9053091472.935421
11284573813.109735
6060208012.165024
16174780360.173141
6411018652.200088
12824457077.342611
-509479240.040099
-1663688756.898697
11036873178.457970
8709766287.430420
-9993021508.551458
-9368048903.167700
-2475705290.190306
-6355243910.051052
1706435429.586770
-5106819455.927035
3098891360.644945
-4056336749.839794
-2807274198.837846
5517213529.330451
2234727631.155068
-685800562.307702
107112574.280710
469951839.637615
-1320619090.110686
-1722917548.995185
-1542337454.615133
930197064.991190
105802300.237168
-3947693061.472471
60217838.720135
7920073.835368
-166357417.854664
12069424671.959024
6268698782.406611
10350290071.645821
-1724883719.879596
681293834.477511
900131171.622734
-944734581.394159
6003848584.090041
-7412845121.552479
-352566907.748144
-14549606193.836477
-521185895.724172
862329868.638461
-266971052.669686
1130165618.938049
318283268.260508
-6498452127.848179
722632218.320557
-2265114955.454224
-63882091.840275
-1282776825.694189
-98831963.441651
-626109786.643498
-936917496.565877
1619139299.756971
9349701140.825899
2604799388.152026
1325780216.844741
-1438000957.695644
235450964.551661
-305916331.655002
-1090575363.118339
2326581168.914366
-911090145.430222
-239961339.197421
970215340.517865
-1337888896.801399
167398824.147303
-326542654.933003
-33998533.100697
172872085.788669
45846546.000936
-45931089.929661
-18937148.749393
-33983351.780432
-31285460.128771
-29898254.233118
-29968787.457245
-30001201.773362
-29924274.155301
-29963246.916582
-30004968.003567
-30000303.010930
-29993775.380587
-29996048.416664
-29982082.966216
-29980653.884265
-29975410.094719
-29977682.544722
-29994676.285791
-29997815.685578
-29990807.002753
-29991716.056173
