# vtk DataFile Version 2.0
cantilever_tri3_mix
ASCII
DATASET POLYDATA
POINTS 297 float
0.000000 -6.000000 0.000000
48.000000 -6.000000 0.000000
48.000000 6.000000 0.000000
0.000000 6.000000 0.000000
1.500000 -6.000000 0.000000
3.000000 -6.000000 0.000000
4.500000 -6.000000 0.000000
6.000000 -6.000000 0.000000
7.500000 -6.000000 0.000000
9.000000 -6.000000 0.000000
10.500000 -6.000000 0.000000
12.000000 -6.000000 0.000000
13.500000 -6.000000 0.000000
15.000000 -6.000000 0.000000
16.500000 -6.000000 0.000000
18.000000 -6.000000 0.000000
19.500000 -6.000000 0.000000
21.000000 -6.000000 0.000000
22.500000 -6.000000 0.000000
24.000000 -6.000000 0.000000
25.500000 -6.000000 0.000000
27.000000 -6.000000 0.000000
28.500000 -6.000000 0.000000
30.000000 -6.000000 0.000000
31.500000 -6.000000 0.000000
33.000000 -6.000000 0.000000
34.500000 -6.000000 0.000000
36.000000 -6.000000 0.000000
37.500000 -6.000000 0.000000
39.000000 -6.000000 0.000000
40.500000 -6.000000 0.000000
42.000000 -6.000000 0.000000
43.500000 -6.000000 0.000000
45.000000 -6.000000 0.000000
46.500000 -6.000000 0.000000
48.000000 -4.500000 0.000000
48.000000 -3.000000 0.000000
48.000000 -1.500000 0.000000
48.000000 -0.000000 0.000000
48.000000 1.500000 0.000000
48.000000 3.000000 0.000000
48.000000 4.500000 0.000000
46.500000 6.000000 0.000000
45.000000 6.000000 0.000000
43.500000 6.000000 0.000000
42.000000 6.000000 0.000000
40.500000 6.000000 0.000000
39.000000 6.000000 0.000000
37.500000 6.000000 0.000000
36.000000 6.000000 0.000000
34.500000 6.000000 0.000000
33.000000 6.000000 0.000000
31.500000 6.000000 0.000000
30.000000 6.000000 0.000000
28.500000 6.000000 0.000000
27.000000 6.000000 0.000000
25.500000 6.000000 0.000000
24.000000 6.000000 0.000000
22.500000 6.000000 0.000000
21.000000 6.000000 0.000000
19.500000 6.000000 0.000000
18.000000 6.000000 0.000000
16.500000 6.000000 0.000000
15.000000 6.000000 0.000000
13.500000 6.000000 0.000000
12.000000 6.000000 0.000000
10.500000 6.000000 0.000000
9.000000 6.000000 0.000000
7.500000 6.000000 0.000000
6.000000 6.000000 0.000000
4.500000 6.000000 0.000000
3.000000 6.000000 0.000000
1.500000 6.000000 0.000000
0.000000 4.500000 0.000000
0.000000 3.000000 0.000000
0.000000 1.500000 0.000000
0.000000 0.000000 0.000000
0.000000 -1.500000 0.000000
0.000000 -3.000000 0.000000
0.000000 -4.500000 0.000000
1.500000 -4.500000 0.000000
1.500000 -3.000000 0.000000
1.500000 -1.500000 0.000000
1.500000 0.000000 0.000000
1.500000 1.500000 0.000000
1.500000 3.000000 0.000000
1.500000 4.500000 0.000000
3.000000 -4.500000 0.000000
3.000000 -3.000000 0.000000
3.000000 -1.500000 0.000000
3.000000 0.000000 0.000000
3.000000 1.500000 0.000000
3.000000 3.000000 0.000000
3.000000 4.500000 0.000000
4.500000 -4.500000 0.000000
4.500000 -3.000000 0.000000
4.500000 -1.500000 0.000000
4.500000 0.000000 0.000000
4.500000 1.500000 0.000000
4.500000 3.000000 0.000000
4.500000 4.500000 0.000000
6.000000 -4.500000 0.000000
6.000000 -3.000000 0.000000
6.000000 -1.500000 0.000000
6.000000 0.000000 0.000000
6.000000 1.500000 0.000000
6.000000 3.000000 0.000000
6.000000 4.500000 0.000000
7.500000 -4.500000 0.000000
7.500000 -3.000000 0.000000
7.500000 -1.500000 0.000000
7.500000 0.000000 0.000000
7.500000 1.500000 0.000000
7.500000 3.000000 0.000000
7.500000 4.500000 0.000000
9.000000 -4.500000 0.000000
9.000000 -3.000000 0.000000
9.000000 -1.500000 0.000000
9.000000 0.000000 0.000000
9.000000 1.500000 0.000000
9.000000 3.000000 0.000000
9.000000 4.500000 0.000000
10.500000 -4.500000 0.000000
10.500000 -3.000000 0.000000
10.500000 -1.500000 0.000000
10.500000 0.000000 0.000000
10.500000 1.500000 0.000000
10.500000 3.000000 0.000000
10.500000 4.500000 0.000000
12.000000 -4.500000 0.000000
12.000000 -3.000000 0.000000
12.000000 -1.500000 0.000000
12.000000 0.000000 0.000000
12.000000 1.500000 0.000000
12.000000 3.000000 0.000000
12.000000 4.500000 0.000000
13.500000 -4.500000 0.000000
13.500000 -3.000000 0.000000
13.500000 -1.500000 0.000000
13.500000 0.000000 0.000000
13.500000 1.500000 0.000000
13.500000 3.000000 0.000000
13.500000 4.500000 0.000000
15.000000 -4.500000 0.000000
15.000000 -3.000000 0.000000
15.000000 -1.500000 0.000000
15.000000 0.000000 0.000000
15.000000 1.500000 0.000000
15.000000 3.000000 0.000000
15.000000 4.500000 0.000000
16.500000 -4.500000 0.000000
16.500000 -3.000000 0.000000
16.500000 -1.500000 0.000000
16.500000 0.000000 0.000000
16.500000 1.500000 0.000000
16.500000 3.000000 0.000000
16.500000 4.500000 0.000000
18.000000 -4.500000 0.000000
18.000000 -3.000000 0.000000
18.000000 -1.500000 0.000000
18.000000 0.000000 0.000000
18.000000 1.500000 0.000000
18.000000 3.000000 0.000000
18.000000 4.500000 0.000000
19.500000 -4.500000 0.000000
19.500000 -3.000000 0.000000
19.500000 -1.500000 0.000000
19.500000 0.000000 0.000000
19.500000 1.500000 0.000000
19.500000 3.000000 0.000000
19.500000 4.500000 0.000000
21.000000 -4.500000 0.000000
21.000000 -3.000000 0.000000
21.000000 -1.500000 0.000000
21.000000 0.000000 0.000000
21.000000 1.500000 0.000000
21.000000 3.000000 0.000000
21.000000 4.500000 0.000000
22.500000 -4.500000 0.000000
22.500000 -3.000000 0.000000
22.500000 -1.500000 0.000000
22.500000 0.000000 0.000000
22.500000 1.500000 0.000000
22.500000 3.000000 0.000000
22.500000 4.500000 0.000000
24.000000 -4.500000 0.000000
24.000000 -3.000000 0.000000
24.000000 -1.500000 0.000000
24.000000 0.000000 0.000000
24.000000 1.500000 0.000000
24.000000 3.000000 0.000000
24.000000 4.500000 0.000000
25.500000 -4.500000 0.000000
25.500000 -3.000000 0.000000
25.500000 -1.500000 0.000000
25.500000 -0.000000 0.000000
25.500000 1.500000 0.000000
25.500000 3.000000 0.000000
25.500000 4.500000 0.000000
27.000000 -4.500000 0.000000
27.000000 -3.000000 0.000000
27.000000 -1.500000 0.000000
27.000000 -0.000000 0.000000
27.000000 1.500000 0.000000
27.000000 3.000000 0.000000
27.000000 4.500000 0.000000
28.500000 -4.500000 0.000000
28.500000 -3.000000 0.000000
28.500000 -1.500000 0.000000
28.500000 -0.000000 0.000000
28.500000 1.500000 0.000000
28.500000 3.000000 0.000000
28.500000 4.500000 0.000000
30.000000 -4.500000 0.000000
30.000000 -3.000000 0.000000
30.000000 -1.500000 0.000000
30.000000 -0.000000 0.000000
30.000000 1.500000 0.000000
30.000000 3.000000 0.000000
30.000000 4.500000 0.000000
31.500000 -4.500000 0.000000
31.500000 -3.000000 0.000000
31.500000 -1.500000 0.000000
31.500000 -0.000000 0.000000
31.500000 1.500000 0.000000
31.500000 3.000000 0.000000
31.500000 4.500000 0.000000
33.000000 -4.500000 0.000000
33.000000 -3.000000 0.000000
33.000000 -1.500000 0.000000
33.000000 -0.000000 0.000000
33.000000 1.500000 0.000000
33.000000 3.000000 0.000000
33.000000 4.500000 0.000000
34.500000 -4.500000 0.000000
34.500000 -3.000000 0.000000
34.500000 -1.500000 0.000000
34.500000 -0.000000 0.000000
34.500000 1.500000 0.000000
34.500000 3.000000 0.000000
34.500000 4.500000 0.000000
36.000000 -4.500000 0.000000
36.000000 -3.000000 0.000000
36.000000 -1.500000 0.000000
36.000000 -0.000000 0.000000
36.000000 1.500000 0.000000
36.000000 3.000000 0.000000
36.000000 4.500000 0.000000
37.500000 -4.500000 0.000000
37.500000 -3.000000 0.000000
37.500000 -1.500000 0.000000
37.500000 -0.000000 0.000000
37.500000 1.500000 0.000000
37.500000 3.000000 0.000000
37.500000 4.500000 0.000000
39.000000 -4.500000 0.000000
39.000000 -3.000000 0.000000
39.000000 -1.500000 0.000000
39.000000 -0.000000 0.000000
39.000000 1.500000 0.000000
39.000000 3.000000 0.000000
39.000000 4.500000 0.000000
40.500000 -4.500000 0.000000
40.500000 -3.000000 0.000000
40.500000 -1.500000 0.000000
40.500000 -0.000000 0.000000
40.500000 1.500000 0.000000
40.500000 3.000000 0.000000
40.500000 4.500000 0.000000
42.000000 -4.500000 0.000000
42.000000 -3.000000 0.000000
42.000000 -1.500000 0.000000
42.000000 -0.000000 0.000000
42.000000 1.500000 0.000000
42.000000 3.000000 0.000000
42.000000 4.500000 0.000000
43.500000 -4.500000 0.000000
43.500000 -3.000000 0.000000
43.500000 -1.500000 0.000000
43.500000 -0.000000 0.000000
43.500000 1.500000 0.000000
43.500000 3.000000 0.000000
43.500000 4.500000 0.000000
45.000000 -4.500000 0.000000
45.000000 -3.000000 0.000000
45.000000 -1.500000 0.000000
45.000000 -0.000000 0.000000
45.000000 1.500000 0.000000
45.000000 3.000000 0.000000
45.000000 4.500000 0.000000
46.500000 -4.500000 0.000000
46.500000 -3.000000 0.000000
46.500000 -1.500000 0.000000
46.500000 -0.000000 0.000000
46.500000 1.500000 0.000000
46.500000 3.000000 0.000000
46.500000 4.500000 0.000000
POLYGONS 512 2048
3 0 4 79
3 79 4 80
3 79 80 78
3 78 80 81
3 78 81 77
3 77 81 82
3 77 82 76
3 76 82 83
3 76 83 75
3 75 83 84
3 75 84 74
3 74 84 85
3 74 85 73
3 73 85 86
3 73 86 3
3 3 86 72
3 4 5 80
3 80 5 87
3 80 87 81
3 81 87 88
3 81 88 82
3 82 88 89
3 82 89 83
3 83 89 90
3 83 90 84
3 84 90 91
3 84 91 85
3 85 91 92
3 85 92 86
3 86 92 93
3 86 93 72
3 72 93 71
3 5 6 87
3 87 6 94
3 87 94 88
3 88 94 95
3 88 95 89
3 89 95 96
3 89 96 90
3 90 96 97
3 90 97 91
3 91 97 98
3 91 98 92
3 92 98 99
3 92 99 93
3 93 99 100
3 93 100 71
3 71 100 70
3 6 7 94
3 94 7 101
3 94 101 95
3 95 101 102
3 95 102 96
3 96 102 103
3 96 103 97
3 97 103 104
3 97 104 98
3 98 104 105
3 98 105 99
3 99 105 106
3 99 106 100
3 100 106 107
3 100 107 70
3 70 107 69
3 7 8 101
3 101 8 108
3 101 108 102
3 102 108 109
3 102 109 103
3 103 109 110
3 103 110 104
3 104 110 111
3 104 111 105
3 105 111 112
3 105 112 106
3 106 112 113
3 106 113 107
3 107 113 114
3 107 114 69
3 69 114 68
3 8 9 108
3 108 9 115
3 108 115 109
3 109 115 116
3 109 116 110
3 110 116 117
3 110 117 111
3 111 117 118
3 111 118 112
3 112 118 119
3 112 119 113
3 113 119 120
3 113 120 114
3 114 120 121
3 114 121 68
3 68 121 67
3 9 10 115
3 115 10 122
3 115 122 116
3 116 122 123
3 116 123 117
3 117 123 124
3 117 124 118
3 118 124 125
3 118 125 119
3 119 125 126
3 119 126 120
3 120 126 127
3 120 127 121
3 121 127 128
3 121 128 67
3 67 128 66
3 10 11 122
3 122 11 129
3 122 129 123
3 123 129 130
3 123 130 124
3 124 130 131
3 124 131 125
3 125 131 132
3 125 132 126
3 126 132 133
3 126 133 127
3 127 133 134
3 127 134 128
3 128 134 135
3 128 135 66
3 66 135 65
3 11 12 129
3 129 12 136
3 129 136 130
3 130 136 137
3 130 137 131
3 131 137 138
3 131 138 132
3 132 138 139
3 132 139 133
3 133 139 140
3 133 140 134
3 134 140 141
3 134 141 135
3 135 141 142
3 135 142 65
3 65 142 64
3 12 13 136
3 136 13 143
3 136 143 137
3 137 143 144
3 137 144 138
3 138 144 145
3 138 145 139
3 139 145 146
3 139 146 140
3 140 146 147
3 140 147 141
3 141 147 148
3 141 148 142
3 142 148 149
3 142 149 64
3 64 149 63
3 13 14 143
3 143 14 150
3 143 150 144
3 144 150 151
3 144 151 145
3 145 151 152
3 145 152 146
3 146 152 153
3 146 153 147
3 147 153 154
3 147 154 148
3 148 154 155
3 148 155 149
3 149 155 156
3 149 156 63
3 63 156 62
3 14 15 150
3 150 15 157
3 150 157 151
3 151 157 158
3 151 158 152
3 152 158 159
3 152 159 153
3 153 159 160
3 153 160 154
3 154 160 161
3 154 161 155
3 155 161 162
3 155 162 156
3 156 162 163
3 156 163 62
3 62 163 61
3 15 16 157
3 157 16 164
3 157 164 158
3 158 164 165
3 158 165 159
3 159 165 166
3 159 166 160
3 160 166 167
3 160 167 161
3 161 167 168
3 161 168 162
3 162 168 169
3 162 169 163
3 163 169 170
3 163 170 61
3 61 170 60
3 16 17 164
3 164 17 171
3 164 171 165
3 165 171 172
3 165 172 166
3 166 172 173
3 166 173 167
3 167 173 174
3 167 174 168
3 168 174 175
3 168 175 169
3 169 175 176
3 169 176 170
3 170 176 177
3 170 177 60
3 60 177 59
3 17 18 171
3 171 18 178
3 171 178 172
3 172 178 179
3 172 179 173
3 173 179 180
3 173 180 174
3 174 180 181
3 174 181 175
3 175 181 182
3 175 182 176
3 176 182 183
3 176 183 177
3 177 183 184
3 177 184 59
3 59 184 58
3 18 19 178
3 178 19 185
3 178 185 179
3 179 185 186
3 179 186 180
3 180 186 187
3 180 187 181
3 181 187 188
3 181 188 182
3 182 188 189
3 182 189 183
3 183 189 190
3 183 190 184
3 184 190 191
3 184 191 58
3 58 191 57
3 19 20 185
3 185 20 192
3 185 192 186
3 186 192 193
3 186 193 187
3 187 193 194
3 187 194 188
3 188 194 195
3 188 195 189
3 189 195 196
3 189 196 190
3 190 196 197
3 190 197 191
3 191 197 198
3 191 198 57
3 57 198 56
3 20 21 192
3 192 21 199
3 192 199 193
3 193 199 200
3 193 200 194
3 194 200 201
3 194 201 195
3 195 201 202
3 195 202 196
3 196 202 203
3 196 203 197
3 197 203 204
3 197 204 198
3 198 204 205
3 198 205 56
3 56 205 55
3 21 22 199
3 199 22 206
3 199 206 200
3 200 206 207
3 200 207 201
3 201 207 208
3 201 208 202
3 202 208 209
3 202 209 203
3 203 209 210
3 203 210 204
3 204 210 211
3 204 211 205
3 205 211 212
3 205 212 55
3 55 212 54
3 22 23 206
3 206 23 213
3 206 213 207
3 207 213 214
3 207 214 208
3 208 214 215
3 208 215 209
3 209 215 216
3 209 216 210
3 210 216 217
3 210 217 211
3 211 217 218
3 211 218 212
3 212 218 219
3 212 219 54
3 54 219 53
3 23 24 213
3 213 24 220
3 213 220 214
3 214 220 221
3 214 221 215
3 215 221 222
3 215 222 216
3 216 222 223
3 216 223 217
3 217 223 224
3 217 224 218
3 218 224 225
3 218 225 219
3 219 225 226
3 219 226 53
3 53 226 52
3 24 25 220
3 220 25 227
3 220 227 221
3 221 227 228
3 221 228 222
3 222 228 229
3 222 229 223
3 223 229 230
3 223 230 224
3 224 230 231
3 224 231 225
3 225 231 232
3 225 232 226
3 226 232 233
3 226 233 52
3 52 233 51
3 25 26 227
3 227 26 234
3 227 234 228
3 228 234 235
3 228 235 229
3 229 235 236
3 229 236 230
3 230 236 237
3 230 237 231
3 231 237 238
3 231 238 232
3 232 238 239
3 232 239 233
3 233 239 240
3 233 240 51
3 51 240 50
3 26 27 234
3 234 27 241
3 234 241 235
3 235 241 242
3 235 242 236
3 236 242 243
3 236 243 237
3 237 243 244
3 237 244 238
3 238 244 245
3 238 245 239
3 239 245 246
3 239 246 240
3 240 246 247
3 240 247 50
3 50 247 49
3 27 28 241
3 241 28 248
3 241 248 242
3 242 248 249
3 242 249 243
3 243 249 250
3 243 250 244
3 244 250 251
3 244 251 245
3 245 251 252
3 245 252 246
3 246 252 253
3 246 253 247
3 247 253 254
3 247 254 49
3 49 254 48
3 28 29 248
3 248 29 255
3 248 255 249
3 249 255 256
3 249 256 250
3 250 256 257
3 250 257 251
3 251 257 258
3 251 258 252
3 252 258 259
3 252 259 253
3 253 259 260
3 253 260 254
3 254 260 261
3 254 261 48
3 48 261 47
3 29 30 255
3 255 30 262
3 255 262 256
3 256 262 263
3 256 263 257
3 257 263 264
3 257 264 258
3 258 264 265
3 258 265 259
3 259 265 266
3 259 266 260
3 260 266 267
3 260 267 261
3 261 267 268
3 261 268 47
3 47 268 46
3 30 31 262
3 262 31 269
3 262 269 263
3 263 269 270
3 263 270 264
3 264 270 271
3 264 271 265
3 265 271 272
3 265 272 266
3 266 272 273
3 266 273 267
3 267 273 274
3 267 274 268
3 268 274 275
3 268 275 46
3 46 275 45
3 31 32 269
3 269 32 276
3 269 276 270
3 270 276 277
3 270 277 271
3 271 277 278
3 271 278 272
3 272 278 279
3 272 279 273
3 273 279 280
3 273 280 274
3 274 280 281
3 274 281 275
3 275 281 282
3 275 282 45
3 45 282 44
3 32 33 276
3 276 33 283
3 276 283 277
3 277 283 284
3 277 284 278
3 278 284 285
3 278 285 279
3 279 285 286
3 279 286 280
3 280 286 287
3 280 287 281
3 281 287 288
3 281 288 282
3 282 288 289
3 282 289 44
3 44 289 43
3 33 34 283
3 283 34 290
3 283 290 284
3 284 290 291
3 284 291 285
3 285 291 292
3 285 292 286
3 286 292 293
3 286 293 287
3 287 293 294
3 287 294 288
3 288 294 295
3 288 295 289
3 289 295 296
3 289 296 43
3 43 296 42
3 34 1 290
3 290 1 35
3 290 35 291
3 291 35 36
3 291 36 292
3 292 36 37
3 292 37 293
3 293 37 38
3 293 38 294
3 294 38 39
3 294 39 295
3 295 39 40
3 295 40 296
3 296 40 41
3 296 41 42
3 42 41 2
POINT_DATA 297
SCALARS P float
LOOKUP_TABLE default
1209.186538
17.998716
-12.170666
-1149.331247
1157.176600
1121.375913
1079.241495
1042.721757
1008.105909
969.039624
933.055720
895.830353
858.549155
822.164976
784.441182
747.881696
710.852137
673.415029
636.970772
599.412811
562.580018
525.672042
488.163001
451.597235
414.196528
377.105151
340.264360
302.730278
266.320572
228.201881
191.537602
156.174630
115.338256
77.354289
46.641387
10.791785
11.831355
5.698669
-1.454523
-3.401502
-10.283762
-16.183018
-28.944179
-63.914561
-105.216066
-143.526339
-177.014178
-215.890403
-252.805153
-288.859315
-326.918515
-363.036938
-400.402792
-437.568779
-473.918357
-511.755000
-547.998615
-585.467909
-622.471360
-659.003081
-696.933031
-732.950777
-770.678396
-807.788983
-843.873103
-882.629812
-917.799144
-956.084609
-993.973577
-1027.128117
-1069.409730
-1106.987279
-1139.027296
-914.361555
-582.980890
-256.781932
73.044427
401.167536
730.569336
1058.466276
965.478519
644.178350
321.868733
-2.272018
-325.078501
-647.354049
-970.000149
935.852289
623.522450
312.884998
-3.274201
-310.688211
-630.066029
-936.559075
906.911152
599.657456
304.915641
-5.482976
-300.378964
-607.740067
-905.057568
875.482979
577.298392
295.086090
-6.664916
-288.721516
-587.692758
-875.287894
844.131321
558.623207
283.215824
-5.353787
-278.354543
-567.492572
-843.902960
812.789441
536.847480
274.025385
-6.424770
-268.757029
-545.035260
-812.570149
781.299098
516.091011
263.367013
-6.363774
-257.161693
-525.384557
-781.537961
750.405053
495.630630
252.605929
-5.825769
-247.605648
-504.118806
-750.088745
718.703141
474.357970
242.841011
-6.550813
-237.026906
-482.925502
-719.148077
687.592812
454.055073
231.744385
-6.018558
-226.132236
-462.802124
-687.747772
656.427401
432.962718
221.647955
-6.156942
-216.565748
-441.182071
-656.517876
624.834095
412.155564
211.313091
-6.327773
-205.388384
-420.858986
-625.398782
593.910344
391.600449
200.432891
-5.937936
-195.345658
-399.905880
-593.985093
562.446741
370.409217
190.560222
-6.394653
-185.063733
-378.859915
-562.868855
531.181749
349.899945
179.800019
-6.020196
-174.044269
-358.461639
-531.489018
500.177912
328.850957
169.395461
-6.256733
-164.377551
-337.264175
-500.263043
468.601042
308.034348
159.340096
-6.333871
-153.287842
-316.750100
-469.016780
437.697719
287.270793
148.504829
-6.018618
-142.991039
-295.864220
-437.542834
406.372055
266.132673
138.433547
-6.697806
-132.994897
-275.067958
-406.537377
375.021009
245.621014
128.155677
-6.033719
-121.495451
-254.470382
-374.885953
344.199312
224.259510
117.327511
-6.547310
-112.162527
-233.436085
-343.775004
312.650681
203.669929
107.584136
-6.821122
-100.962116
-213.152206
-312.503079
281.682640
182.864514
96.938605
-5.834572
-90.255201
-191.818193
-280.772006
250.550840
161.140783
86.256793
-7.466063
-81.042779
-171.617563
-250.108558
219.170708
141.468699
76.739301
-6.046100
-68.648319
-150.832867
-217.973520
188.595218
119.475743
65.432061
-6.602507
-60.076244
-129.408275
-187.152159
156.586917
98.814948
55.370011
-6.976855
-49.253939
-109.504852
-156.109636
125.855334
78.196215
45.536342
-5.100093
-36.999609
-88.601820
-122.855687
96.584695
56.370233
32.337857
-7.909707
-31.201179
-68.178971
-94.434616
63.950731
38.851741
24.441047
-0.379128
-16.706264
-42.744956
-62.825870
29.858338
17.032560
5.803830
-4.523396
-13.045541
-24.418521
-33.211983
