# vtk DataFile Version 2.0
cantilever_tri3_mix
ASCII
DATASET POLYDATA
POINTS 4257 float
0.000000 -6.000000 0.000000
48.000000 -6.000000 0.000000
48.000000 6.000000 0.000000
0.000000 6.000000 0.000000
0.375000 -6.000000 0.000000
0.750000 -6.000000 0.000000
1.125000 -6.000000 0.000000
1.500000 -6.000000 0.000000
1.875000 -6.000000 0.000000
2.250000 -6.000000 0.000000
2.625000 -6.000000 0.000000
3.000000 -6.000000 0.000000
3.375000 -6.000000 0.000000
3.750000 -6.000000 0.000000
4.125000 -6.000000 0.000000
4.500000 -6.000000 0.000000
4.875000 -6.000000 0.000000
5.250000 -6.000000 0.000000
5.625000 -6.000000 0.000000
6.000000 -6.000000 0.000000
6.375000 -6.000000 0.000000
6.750000 -6.000000 0.000000
7.125000 -6.000000 0.000000
7.500000 -6.000000 0.000000
7.875000 -6.000000 0.000000
8.250000 -6.000000 0.000000
8.625000 -6.000000 0.000000
9.000000 -6.000000 0.000000
9.375000 -6.000000 0.000000
9.750000 -6.000000 0.000000
10.125000 -6.000000 0.000000
10.500000 -6.000000 0.000000
10.875000 -6.000000 0.000000
11.250000 -6.000000 0.000000
11.625000 -6.000000 0.000000
12.000000 -6.000000 0.000000
12.375000 -6.000000 0.000000
12.750000 -6.000000 0.000000
13.125000 -6.000000 0.000000
13.500000 -6.000000 0.000000
13.875000 -6.000000 0.000000
14.250000 -6.000000 0.000000
14.625000 -6.000000 0.000000
15.000000 -6.000000 0.000000
15.375000 -6.000000 0.000000
15.750000 -6.000000 0.000000
16.125000 -6.000000 0.000000
16.500000 -6.000000 0.000000
16.875000 -6.000000 0.000000
17.250000 -6.000000 0.000000
17.625000 -6.000000 0.000000
18.000000 -6.000000 0.000000
18.375000 -6.000000 0.000000
18.750000 -6.000000 0.000000
19.125000 -6.000000 0.000000
19.500000 -6.000000 0.000000
19.875000 -6.000000 0.000000
20.250000 -6.000000 0.000000
20.625000 -6.000000 0.000000
21.000000 -6.000000 0.000000
21.375000 -6.000000 0.000000
21.750000 -6.000000 0.000000
22.125000 -6.000000 0.000000
22.500000 -6.000000 0.000000
22.875000 -6.000000 0.000000
23.250000 -6.000000 0.000000
23.625000 -6.000000 0.000000
24.000000 -6.000000 0.000000
24.375000 -6.000000 0.000000
24.750000 -6.000000 0.000000
25.125000 -6.000000 0.000000
25.500000 -6.000000 0.000000
25.875000 -6.000000 0.000000
26.250000 -6.000000 0.000000
26.625000 -6.000000 0.000000
27.000000 -6.000000 0.000000
27.375000 -6.000000 0.000000
27.750000 -6.000000 0.000000
28.125000 -6.000000 0.000000
28.500000 -6.000000 0.000000
28.875000 -6.000000 0.000000
29.250000 -6.000000 0.000000
29.625000 -6.000000 0.000000
30.000000 -6.000000 0.000000
30.375000 -6.000000 0.000000
30.750000 -6.000000 0.000000
31.125000 -6.000000 0.000000
31.500000 -6.000000 0.000000
31.875000 -6.000000 0.000000
32.250000 -6.000000 0.000000
32.625000 -6.000000 0.000000
33.000000 -6.000000 0.000000
33.375000 -6.000000 0.000000
33.750000 -6.000000 0.000000
34.125000 -6.000000 0.000000
34.500000 -6.000000 0.000000
34.875000 -6.000000 0.000000
35.250000 -6.000000 0.000000
35.625000 -6.000000 0.000000
36.000000 -6.000000 0.000000
36.375000 -6.000000 0.000000
36.750000 -6.000000 0.000000
37.125000 -6.000000 0.000000
37.500000 -6.000000 0.000000
37.875000 -6.000000 0.000000
38.250000 -6.000000 0.000000
38.625000 -6.000000 0.000000
39.000000 -6.000000 0.000000
39.375000 -6.000000 0.000000
39.750000 -6.000000 0.000000
40.125000 -6.000000 0.000000
40.500000 -6.000000 0.000000
40.875000 -6.000000 0.000000
41.250000 -6.000000 0.000000
41.625000 -6.000000 0.000000
42.000000 -6.000000 0.000000
42.375000 -6.000000 0.000000
42.750000 -6.000000 0.000000
43.125000 -6.000000 0.000000
43.500000 -6.000000 0.000000
43.875000 -6.000000 0.000000
44.250000 -6.000000 0.000000
44.625000 -6.000000 0.000000
45.000000 -6.000000 0.000000
45.375000 -6.000000 0.000000
45.750000 -6.000000 0.000000
46.125000 -6.000000 0.000000
46.500000 -6.000000 0.000000
46.875000 -6.000000 0.000000
47.250000 -6.000000 0.000000
47.625000 -6.000000 0.000000
48.000000 -5.625000 0.000000
48.000000 -5.250000 0.000000
48.000000 -4.875000 0.000000
48.000000 -4.500000 0.000000
48.000000 -4.125000 0.000000
48.000000 -3.750000 0.000000
48.000000 -3.375000 0.000000
48.000000 -3.000000 0.000000
48.000000 -2.625000 0.000000
48.000000 -2.250000 0.000000
48.000000 -1.875000 0.000000
48.000000 -1.500000 0.000000
48.000000 -1.125000 0.000000
48.000000 -0.750000 0.000000
48.000000 -0.375000 0.000000
48.000000 -0.000000 0.000000
48.000000 0.375000 0.000000
48.000000 0.750000 0.000000
48.000000 1.125000 0.000000
48.000000 1.500000 0.000000
48.000000 1.875000 0.000000
48.000000 2.250000 0.000000
48.000000 2.625000 0.000000
48.000000 3.000000 0.000000
48.000000 3.375000 0.000000
48.000000 3.750000 0.000000
48.000000 4.125000 0.000000
48.000000 4.500000 0.000000
48.000000 4.875000 0.000000
48.000000 5.250000 0.000000
48.000000 5.625000 0.000000
47.625000 6.000000 0.000000
47.250000 6.000000 0.000000
46.875000 6.000000 0.000000
46.500000 6.000000 0.000000
46.125000 6.000000 0.000000
45.750000 6.000000 0.000000
45.375000 6.000000 0.000000
45.000000 6.000000 0.000000
44.625000 6.000000 0.000000
44.250000 6.000000 0.000000
43.875000 6.000000 0.000000
43.500000 6.000000 0.000000
43.125000 6.000000 0.000000
42.750000 6.000000 0.000000
42.375000 6.000000 0.000000
42.000000 6.000000 0.000000
41.625000 6.000000 0.000000
41.250000 6.000000 0.000000
40.875000 6.000000 0.000000
40.500000 6.000000 0.000000
40.125000 6.000000 0.000000
39.750000 6.000000 0.000000
39.375000 6.000000 0.000000
39.000000 6.000000 0.000000
38.625000 6.000000 0.000000
38.250000 6.000000 0.000000
37.875000 6.000000 0.000000
37.500000 6.000000 0.000000
37.125000 6.000000 0.000000
36.750000 6.000000 0.000000
36.375000 6.000000 0.000000
36.000000 6.000000 0.000000
35.625000 6.000000 0.000000
35.250000 6.000000 0.000000
34.875000 6.000000 0.000000
34.500000 6.000000 0.000000
34.125000 6.000000 0.000000
33.750000 6.000000 0.000000
33.375000 6.000000 0.000000
33.000000 6.000000 0.000000
32.625000 6.000000 0.000000
32.250000 6.000000 0.000000
31.875000 6.000000 0.000000
31.500000 6.000000 0.000000
31.125000 6.000000 0.000000
30.750000 6.000000 0.000000
30.375000 6.000000 0.000000
30.000000 6.000000 0.000000
29.625000 6.000000 0.000000
29.250000 6.000000 0.000000
28.875000 6.000000 0.000000
28.500000 6.000000 0.000000
28.125000 6.000000 0.000000
27.750000 6.000000 0.000000
27.375000 6.000000 0.000000
27.000000 6.000000 0.000000
26.625000 6.000000 0.000000
26.250000 6.000000 0.000000
25.875000 6.000000 0.000000
25.500000 6.000000 0.000000
25.125000 6.000000 0.000000
24.750000 6.000000 0.000000
24.375000 6.000000 0.000000
24.000000 6.000000 0.000000
23.625000 6.000000 0.000000
23.250000 6.000000 0.000000
22.875000 6.000000 0.000000
22.500000 6.000000 0.000000
22.125000 6.000000 0.000000
21.750000 6.000000 0.000000
21.375000 6.000000 0.000000
21.000000 6.000000 0.000000
20.625000 6.000000 0.000000
20.250000 6.000000 0.000000
19.875000 6.000000 0.000000
19.500000 6.000000 0.000000
19.125000 6.000000 0.000000
18.750000 6.000000 0.000000
18.375000 6.000000 0.000000
18.000000 6.000000 0.000000
17.625000 6.000000 0.000000
17.250000 6.000000 0.000000
16.875000 6.000000 0.000000
16.500000 6.000000 0.000000
16.125000 6.000000 0.000000
15.750000 6.000000 0.000000
15.375000 6.000000 0.000000
15.000000 6.000000 0.000000
14.625000 6.000000 0.000000
14.250000 6.000000 0.000000
13.875000 6.000000 0.000000
13.500000 6.000000 0.000000
13.125000 6.000000 0.000000
12.750000 6.000000 0.000000
12.375000 6.000000 0.000000
12.000000 6.000000 0.000000
11.625000 6.000000 0.000000
11.250000 6.000000 0.000000
10.875000 6.000000 0.000000
10.500000 6.000000 0.000000
10.125000 6.000000 0.000000
9.750000 6.000000 0.000000
9.375000 6.000000 0.000000
9.000000 6.000000 0.000000
8.625000 6.000000 0.000000
8.250000 6.000000 0.000000
7.875000 6.000000 0.000000
7.500000 6.000000 0.000000
7.125000 6.000000 0.000000
6.750000 6.000000 0.000000
6.375000 6.000000 0.000000
6.000000 6.000000 0.000000
5.625000 6.000000 0.000000
5.250000 6.000000 0.000000
4.875000 6.000000 0.000000
4.500000 6.000000 0.000000
4.125000 6.000000 0.000000
3.750000 6.000000 0.000000
3.375000 6.000000 0.000000
3.000000 6.000000 0.000000
2.625000 6.000000 0.000000
2.250000 6.000000 0.000000
1.875000 6.000000 0.000000
1.500000 6.000000 0.000000
1.125000 6.000000 0.000000
0.750000 6.000000 0.000000
0.375000 6.000000 0.000000
0.000000 5.625000 0.000000
0.000000 5.250000 0.000000
0.000000 4.875000 0.000000
0.000000 4.500000 0.000000
0.000000 4.125000 0.000000
0.000000 3.750000 0.000000
0.000000 3.375000 0.000000
0.000000 3.000000 0.000000
0.000000 2.625000 0.000000
0.000000 2.250000 0.000000
0.000000 1.875000 0.000000
0.000000 1.500000 0.000000
0.000000 1.125000 0.000000
0.000000 0.750000 0.000000
0.000000 0.375000 0.000000
0.000000 0.000000 0.000000
0.000000 -0.375000 0.000000
0.000000 -0.750000 0.000000
0.000000 -1.125000 0.000000
0.000000 -1.500000 0.000000
0.000000 -1.875000 0.000000
0.000000 -2.250000 0.000000
0.000000 -2.625000 0.000000
0.000000 -3.000000 0.000000
0.000000 -3.375000 0.000000
0.000000 -3.750000 0.000000
0.000000 -4.125000 0.000000
0.000000 -4.500000 0.000000
0.000000 -4.875000 0.000000
0.000000 -5.250000 0.000000
0.000000 -5.625000 0.000000
0.375000 -5.625000 0.000000
0.375000 -5.250000 0.000000
0.375000 -4.875000 0.000000
0.375000 -4.500000 0.000000
0.375000 -4.125000 0.000000
0.375000 -3.750000 0.000000
0.375000 -3.375000 0.000000
0.375000 -3.000000 0.000000
0.375000 -2.625000 0.000000
0.375000 -2.250000 0.000000
0.375000 -1.875000 0.000000
0.375000 -1.500000 0.000000
0.375000 -1.125000 0.000000
0.375000 -0.750000 0.000000
0.375000 -0.375000 0.000000
0.375000 0.000000 0.000000
0.375000 0.375000 0.000000
0.375000 0.750000 0.000000
0.375000 1.125000 0.000000
0.375000 1.500000 0.000000
0.375000 1.875000 0.000000
0.375000 2.250000 0.000000
0.375000 2.625000 0.000000
0.375000 3.000000 0.000000
0.375000 3.375000 0.000000
0.375000 3.750000 0.000000
0.375000 4.125000 0.000000
0.375000 4.500000 0.000000
0.375000 4.875000 0.000000
0.375000 5.250000 0.000000
0.375000 5.625000 0.000000
[...]
POINT_DATA 4257
VECTORS U float
6.939236 52.759366 0.000000
-0.582865 24.500244 0.000000
-6.672833 24.500235 0.000000
0.830583 -13.815204 0.000000
39.646787 7.585773 0.000000
40.797392 -18.767802 0.000000
22.924239 -9.853542 0.000000
-9.041070 -24.224065 0.000000
-48.236104 -1.743818 0.000000
-73.316277 2.904492 0.000000
-70.498796 0.669994 0.000000
-62.781114 18.507982 0.000000
-41.219647 6.949820 0.000000
-12.677924 40.547509 0.000000
14.891406 35.027859 0.000000
22.213785 -0.637544 0.000000
15.586342 11.659561 0.000000
25.996943 5.392499 0.000000
22.381627 -22.765137 0.000000
-7.393833 21.816735 0.000000
-30.125900 0.547216 0.000000
-40.980817 27.579858 0.000000
-35.489205 -5.493564 0.000000
-32.430389 -24.765713 0.000000
-25.120948 -29.281929 0.000000
0.141290 -12.617509 0.000000
25.437040 29.584388 0.000000
32.091901 -12.260439 0.000000
22.240316 -30.284154 0.000000
13.709775 -25.402471 0.000000
19.090960 -49.771855 0.000000
27.662142 25.553751 0.000000
27.689367 -36.502454 0.000000
16.854000 -17.466043 0.000000
-3.284326 11.566150 0.000000
-17.640904 32.519643 0.000000
-23.583888 -3.223410 0.000000
-26.137497 20.738016 0.000000
-30.705833 29.388281 0.000000
-31.864767 37.482538 0.000000
-28.760220 32.860808 0.000000
-23.998759 -2.339351 0.000000
-19.929249 22.152515 0.000000
-18.307406 29.275933 0.000000
-18.187261 3.942992 0.000000
-18.376026 12.363911 0.000000
-17.845041 9.111956 0.000000
-16.996063 7.327431 0.000000
-16.275095 8.148102 0.000000
-14.736491 13.773732 0.000000
-12.415381 9.871747 0.000000
-9.567286 8.464066 0.000000
-6.574763 11.152528 0.000000
-3.796241 7.662841 0.000000
-1.919051 8.080631 0.000000
-1.080947 5.847235 0.000000
-1.054974 5.438471 0.000000
-1.277340 4.452975 0.000000
-1.517963 5.599491 0.000000
-1.675985 6.816794 0.000000
-1.678890 8.236731 0.000000
-1.516601 9.442632 0.000000
-1.243559 10.186594 0.000000
-1.021812 10.808757 0.000000
-0.913155 11.115563 0.000000
-0.899785 11.264228 0.000000
-0.918302 11.562336 0.000000
-0.925140 12.064779 0.000000
-0.911170 12.468727 0.000000
-0.875932 12.699029 0.000000
-0.828562 12.902111 0.000000
-0.776289 13.176989 0.000000
-0.724230 13.384363 0.000000
-0.682483 13.585707 0.000000
-0.653267 13.761446 0.000000
-0.630653 13.925133 0.000000
-0.612115 14.099724 0.000000
-0.597525 14.294707 0.000000
-0.586136 14.456226 0.000000
-0.578798 14.654783 0.000000
-0.575023 14.821597 0.000000
-0.573024 14.997027 0.000000
-0.571909 15.184021 0.000000
-0.571888 15.369289 0.000000
-0.573181 15.553903 0.000000
-0.575065 15.741215 0.000000
-0.577049 15.930141 0.000000
-0.579082 16.121407 0.000000
-0.581029 16.310691 0.000000
-0.582570 16.502097 0.000000
-0.583553 16.693512 0.000000
-0.584042 16.884793 0.000000
-0.584178 17.075633 0.000000
-0.584155 17.266686 0.000000
-0.584080 17.457372 0.000000
-0.584024 17.648087 0.000000
-0.583959 17.838416 0.000000
-0.583873 18.028884 0.000000
-0.583767 18.219523 0.000000
-0.583643 18.409884 0.000000
-0.583517 18.600367 0.000000
-0.583422 18.790668 0.000000
-0.583359 18.980868 0.000000
-0.583318 19.171176 0.000000
-0.583285 19.361506 0.000000
-0.583257 19.551736 0.000000
-0.583235 19.742040 0.000000
-0.583215 19.932355 0.000000
-0.583198 20.122671 0.000000
-0.583182 20.312987 0.000000
-0.583163 20.503306 0.000000
-0.583144 20.693636 0.000000
-0.583124 20.883958 0.000000
-0.583103 21.074286 0.000000
-0.583081 21.264614 0.000000
-0.583060 21.454939 0.000000
-0.583038 21.645264 0.000000
-0.583018 21.835592 0.000000
-0.582998 22.025921 0.000000
-0.582980 22.216247 0.000000
-0.582963 22.406575 0.000000
-0.582947 22.596906 0.000000
-0.582933 22.787237 0.000000
-0.582920 22.977569 0.000000
-0.582908 23.167902 0.000000
-0.582898 23.358235 0.000000
-0.582889 23.548569 0.000000
-0.582881 23.738904 0.000000
-0.582875 23.929239 0.000000
-0.582870 24.119574 0.000000
-0.582866 24.309909 0.000000
-0.773201 24.500243 0.000000
-0.963531 24.500242 0.000000
-1.153855 24.500241 0.000000
-1.344178 24.500240 0.000000
-1.534499 24.500239 0.000000
-1.724816 24.500238 0.000000
-1.915130 24.500237 0.000000
-2.105440 24.500236 0.000000
-2.295749 24.500235 0.000000
-2.486056 24.500234 0.000000
-2.676361 24.500234 0.000000
-2.866663 24.500233 0.000000
-3.056965 24.500233 0.000000
-3.247266 24.500232 0.000000
-3.437565 24.500232 0.000000
-3.627863 24.500231 0.000000
-3.818162 24.500231 0.000000
-4.008460 24.500231 0.000000
-4.198759 24.500231 0.000000
-4.389060 24.500230 0.000000
-4.579360 24.500230 0.000000
-4.769660 24.500231 0.000000
-4.959962 24.500231 0.000000
-5.150266 24.500231 0.000000
-5.340574 24.500231 0.000000
-5.530886 24.500232 0.000000
-5.721201 24.500232 0.000000
-5.911520 24.500233 0.000000
-6.101843 24.500233 0.000000
-6.292168 24.500234 0.000000
-6.482498 24.500235 0.000000
-6.672832 24.309901 0.000000
-6.672829 24.119567 0.000000
-6.672824 23.929233 0.000000
-6.672819 23.738899 0.000000
-6.672811 23.548566 0.000000
-6.672802 23.358233 0.000000
-6.672792 23.167901 0.000000
-6.672780 22.977570 0.000000
-6.672767 22.787239 0.000000
-6.672752 22.596910 0.000000
-6.672736 22.406580 0.000000
-6.672719 22.216253 0.000000
-6.672700 22.025927 0.000000
-6.672681 21.835600 0.000000
-6.672659 21.645275 0.000000
-6.672637 21.454953 0.000000
-6.672613 21.264632 0.000000
-6.672587 21.074309 0.000000
-6.672560 20.883988 0.000000
-6.672531 20.693672 0.000000
-6.672502 20.503345 0.000000
-6.672472 20.313018 0.000000
-6.672440 20.122689 0.000000
-6.672408 19.932358 0.000000
-6.672375 19.742016 0.000000
-6.672342 19.551662 0.000000
-6.672313 19.361355 0.000000
-6.672294 19.170919 0.000000
-6.672283 18.980510 0.000000
-6.672280 18.790229 0.000000
-6.672281 18.599913 0.000000
-6.672292 18.409519 0.000000
-6.672316 18.219373 0.000000
-6.672346 18.029025 0.000000
-6.672358 17.838838 0.000000
-6.672340 17.648664 0.000000
-6.672271 17.458243 0.000000
-6.672144 17.267962 0.000000
-6.671950 17.077591 0.000000
-6.671675 16.887655 0.000000
-6.671308 16.697451 0.000000
-6.670860 16.507021 0.000000
-6.670288 16.316211 0.000000
-6.669566 16.126766 0.000000
-6.668651 15.934590 0.000000
-6.667575 15.742983 0.000000
-6.666506 15.550630 0.000000
-6.665525 15.358464 0.000000
-6.664619 15.163957 0.000000
-6.663771 14.966212 0.000000
-6.662982 14.778498 0.000000
-6.661994 14.596694 0.000000
-6.660667 14.382881 0.000000
-6.659342 14.203454 0.000000
-6.658464 13.988470 0.000000
-6.658804 13.793920 0.000000
-6.661484 13.618165 0.000000
-6.667044 13.441216 0.000000
-6.674780 13.247474 0.000000
-6.683856 13.069791 0.000000
-6.693766 12.872152 0.000000
-6.702546 12.805452 0.000000
-6.707042 12.775664 0.000000
-6.705178 12.693109 0.000000
-6.696904 12.617184 0.000000
-6.683887 12.772899 0.000000
-6.664047 13.000185 0.000000
-6.650520 13.083675 0.000000
-6.670271 13.147274 0.000000
-6.756205 13.445081 0.000000
-6.921494 13.626862 0.000000
-7.158704 13.923823 0.000000
-7.464309 14.347930 0.000000
-7.823369 14.029085 0.000000
-8.218533 14.695277 0.000000
-8.589319 13.912960 0.000000
-8.897444 14.196652 0.000000
-9.155055 11.904842 0.000000
-9.313106 15.178527 0.000000
-9.218238 13.571229 0.000000
-8.886124 15.206245 0.000000
-8.800798 18.583792 0.000000
-9.274105 13.183726 0.000000
-10.334567 14.149066 0.000000
-11.981003 17.283929 0.000000
-14.048538 18.655470 0.000000
-16.081839 4.127242 0.000000
-17.548695 21.331582 0.000000
-18.711558 5.804798 0.000000
-20.294457 -24.313582 0.000000
-22.842149 9.601560 0.000000
-26.703759 -0.823397 0.000000
-32.439103 -13.831226 0.000000
-39.385746 -14.290260 0.000000
-45.550509 -22.942812 0.000000
-49.116604 37.089686 0.000000
-49.079312 36.097821 0.000000
-46.000989 22.909192 0.000000
-40.549277 -8.870298 0.000000
-33.576668 46.659550 0.000000
-24.451786 -29.179479 0.000000
-12.661665 9.075064 0.000000
-0.652714 23.606428 0.000000
10.096703 12.060150 0.000000
18.650862 25.702658 0.000000
22.077554 -20.902007 0.000000
18.464745 -16.172415 0.000000
9.897669 -7.722069 0.000000
-2.227194 -19.855475 0.000000
-11.005645 -16.574845 0.000000
-11.778892 -13.821335 0.000000
-14.642039 28.268186 0.000000
-21.773323 -1.407968 0.000000
-26.647117 6.032851 0.000000
-26.679107 12.302015 0.000000
-19.009797 -18.707316 0.000000
-12.215519 19.572034 0.000000
-5.993988 31.620403 0.000000
0.281127 23.844017 0.000000
-0.216563 11.470630 0.000000
-3.822932 -5.182522 0.000000
-8.627374 -5.348973 0.000000
-16.425807 -1.740372 0.000000
-20.037555 -7.566620 0.000000
-21.714812 -10.179517 0.000000
-20.811148 7.213618 0.000000
-13.924052 16.072113 0.000000
-0.678122 -22.794917 0.000000
1.859955 -15.160379 0.000000
-0.238067 -5.058934 0.000000
-0.775836 -10.299885 0.000000
-0.355760 -12.240649 0.000000
2.669871 12.022373 0.000000
1.520049 30.031257 0.000000
-7.769241 1.513089 0.000000
4.567845 -2.876263 0.000000
-7.484949 2.660860 0.000000
0.171160 -22.220603 0.000000
2.933034 -25.473697 0.000000
2.571110 -4.187127 0.000000
-0.546703 12.396498 0.000000
1.097630 9.640898 0.000000
2.248634 23.300910 0.000000
-0.904278 32.763877 0.000000
-0.747431 19.929716 0.000000
0.147732 1.892148 0.000000
-0.248543 -12.257907 0.000000
-0.730359 -28.430854 0.000000
-0.017166 -37.140422 0.000000
1.533676 -20.384448 0.000000
2.244760 6.480451 0.000000
-4.141029 -9.579063 0.000000
1.089523 -34.801243 0.000000
2.851406 -20.933367 0.000000
2.010476 14.279859 0.000000
-1.513480 28.627483 0.000000
-1.868034 14.408592 0.000000
-1.217508 14.053291 0.000000
11.225612 -1.149050 0.000000
0.057191 -14.687215 0.000000
-2.933904 -20.034596 0.000000
17.418047 -21.613305 0.000000
9.280668 -18.504436 0.000000
-7.579999 -10.675451 0.000000
-18.658923 -6.255500 0.000000
5.667524 -6.049552 0.000000
13.625757 -4.067375 0.000000
-0.144551 -2.730582 0.000000
-5.193619 -5.220300 0.000000
-7.641924 -5.571603 0.000000
-10.845238 -0.197638 0.000000
-11.504512 5.964246 0.000000
-1.467292 8.777378 0.000000
4.515772 11.251219 0.000000
1.205411 14.546302 0.000000
2.612468 10.407728 0.000000
10.408733 10.607718 0.000000
4.404121 11.632757 0.000000
-13.391266 16.896875 0.000000
2.696067 10.261662 0.000000
14.607837 -0.953267 0.000000
-20.924862 1.241050 0.000000
-6.591227 10.325766 0.000000
14.334510 15.507675 0.000000
6.252507 11.996383 0.000000
-5.348212 10.603429 0.000000
3.284343 8.972253 0.000000
6.621448 7.270632 0.000000
-2.987277 8.658167 0.000000
15.897418 -11.170986 0.000000
14.524085 -22.794406 0.000000
0.841655 -34.287839 0.000000
12.744962 -33.092619 0.000000
-7.310808 -18.096580 0.000000
-12.224956 -5.025489 0.000000
-10.102300 -11.778124 0.000000
2.714290 -17.908274 0.000000
2.255551 -7.026393 0.000000
-0.877820 3.023718 0.000000
-0.176641 1.832190 0.000000
-10.015819 -0.015903 0.000000
-13.805669 0.918535 0.000000
-11.511705 -3.240728 0.000000
-2.939620 -5.063570 0.000000
0.033441 -1.265329 0.000000
1.095902 0.489623 0.000000
5.953351 0.390076 0.000000
5.390646 0.568019 0.000000
2.589475 4.255714 0.000000
-9.786036 -1.054507 0.000000
14.170284 -8.646745 0.000000
13.749345 -9.558575 0.000000
-21.929947 -8.129881 0.000000
-14.093452 -6.174328 0.000000
7.819115 1.035181 0.000000
6.366901 7.156429 0.000000
-0.827173 5.030409 0.000000
6.154467 -0.251317 0.000000
5.156065 -0.843913 0.000000
-7.985473 3.351685 0.000000
14.106265 3.127274 0.000000
26.371371 3.041836 0.000000
7.146110 -3.505952 0.000000
3.994194 -4.335548 0.000000
-21.235487 5.438868 0.000000
-14.961488 9.821685 0.000000
-4.101511 12.410470 0.000000
-1.007311 14.307072 0.000000
-7.718646 17.611845 0.000000
-5.278353 22.174559 0.000000
-0.007728 26.547442 0.000000
-8.166076 26.363392 0.000000
-3.508189 15.588424 0.000000
-4.762097 2.343918 0.000000
-5.629620 1.017495 0.000000
-2.811210 3.751739 0.000000
3.105931 4.106716 0.000000
7.427126 1.848392 0.000000
3.027973 1.926488 0.000000
4.245324 0.852206 0.000000
-1.434267 -4.289779 0.000000
15.579216 -7.495778 0.000000
13.993204 -8.409524 0.000000
-22.170280 -9.945358 0.000000
-14.744882 -11.884874 0.000000
1.339969 -11.515681 0.000000
3.701244 -7.903020 0.000000
2.654836 -6.911176 0.000000
9.644111 -9.069245 0.000000
2.628688 -9.513554 0.000000
-10.240728 -9.192715 0.000000
5.878864 0.780182 0.000000
24.038161 9.607423 0.000000
12.067374 10.122718 0.000000
-0.841006 10.141000 0.000000
-20.924515 6.432535 0.000000
-20.814938 7.468686 0.000000
-7.307377 11.895312 0.000000
-4.595380 16.448847 0.000000
-7.869613 16.657581 0.000000
-8.819558 15.366810 0.000000
-4.518891 18.965940 0.000000
-5.468480 21.395350 0.000000
7.132953 20.006060 0.000000
0.987193 15.886194 0.000000
-6.280267 12.760438 0.000000
-5.328039 13.969966 0.000000
0.189088 19.911690 0.000000
6.674122 25.269577 0.000000
6.242236 23.301145 0.000000
7.486907 19.433389 0.000000
3.127887 15.809877 0.000000
17.090493 13.663344 0.000000
17.053610 10.827532 0.000000
-18.212421 5.654475 0.000000
-11.963637 0.993790 0.000000
2.042738 -2.986577 0.000000
1.509556 -4.943568 0.000000
1.284450 -2.411596 0.000000
8.967176 1.218829 0.000000
3.796539 2.411625 0.000000
-6.913235 -3.095223 0.000000
-8.428476 21.550711 0.000000
18.756026 30.160842 0.000000
8.823744 38.254678 0.000000
4.053354 36.529598 0.000000
-14.147668 26.785937 0.000000
-22.337503 20.111155 0.000000
-8.610808 18.347111 0.000000
-5.701846 17.225629 0.000000
-3.923385 14.377199 0.000000
-6.180553 9.645382 0.000000
-7.352824 6.394997 0.000000
-10.672289 11.330015 0.000000
5.697850 17.879401 0.000000
3.927515 19.546553 0.000000
-3.889222 16.577653 0.000000
-8.314111 15.853938 0.000000
-7.755080 21.305680 0.000000
5.931383 24.146849 0.000000
8.757933 23.355798 0.000000
9.843611 22.484358 0.000000
5.148814 21.439826 0.000000
18.842302 20.720195 0.000000
17.068495 21.990330 0.000000
-12.896229 22.867098 0.000000
-7.130127 17.360323 0.000000
9.587124 8.653294 0.000000
2.525317 3.040935 0.000000
-2.687395 3.278279 0.000000
4.986295 8.386983 0.000000
5.842114 9.569047 0.000000
0.664542 5.046169 0.000000
-16.521447 9.766766 0.000000
4.803908 22.356133 0.000000
8.263558 29.589876 0.000000
13.246826 23.384919 0.000000
-1.745817 9.986266 0.000000
-17.298673 1.858186 0.000000
-5.961497 -4.027769 0.000000
-3.618802 -6.908327 0.000000
-1.713611 -7.294037 0.000000
0.770488 -10.254762 0.000000
-5.675006 -15.318053 0.000000
-16.393483 -16.751525 0.000000
-0.512459 -12.078949 0.000000
4.722428 -8.631769 0.000000
-2.428865 -8.368624 0.000000
-9.573257 -8.440229 0.000000
-11.055228 -8.924968 0.000000
6.006476 -8.692981 0.000000
11.415051 -11.108296 0.000000
9.046088 -11.705772 0.000000
6.047844 -11.387836 0.000000
17.116544 -10.093060 0.000000
13.931725 -6.934670 0.000000
-14.873840 -3.103645 0.000000
-0.956285 -3.592809 0.000000
17.357957 -8.304057 0.000000
3.903845 -11.664688 0.000000
-4.550590 -11.756751 0.000000
0.484934 -10.343154 0.000000
4.155614 -5.007483 0.000000
4.080680 -1.932725 0.000000
-25.048252 -0.418431 0.000000
-9.258617 11.768410 0.000000
7.920582 18.597118 0.000000
24.172086 15.261045 0.000000
7.685567 8.475982 0.000000
-7.540869 -1.386198 0.000000
-0.939790 -10.302069 0.000000
-3.675538 -12.493116 0.000000
-4.632404 -7.985445 0.000000
2.814893 -5.940375 0.000000
-1.709413 -7.490644 0.000000
-14.607475 -12.010136 0.000000
-4.645353 -12.798453 0.000000
-0.586802 -5.792300 0.000000
-6.823452 4.055330 0.000000
-9.213441 8.836713 0.000000
-9.932594 7.467903 0.000000
7.217804 4.468138 0.000000
13.860975 3.098526 0.000000
7.490295 2.716191 0.000000
6.820836 3.088876 0.000000
19.309961 -1.590873 0.000000
12.092586 -6.243715 0.000000
-16.070924 -6.219584 0.000000
4.758110 -11.542221 0.000000
21.934036 -17.322867 0.000000
6.556499 -20.906401 0.000000
-4.541497 -23.843295 0.000000
-2.941810 -22.881536 0.000000
-4.188204 -15.864676 0.000000
0.881937 -6.931208 0.000000
-23.627310 7.002333 0.000000
-19.588796 8.149833 0.000000
3.225868 16.836195 0.000000
24.137059 25.350480 0.000000
14.533797 25.229401 0.000000
3.050783 16.812690 0.000000
6.106127 5.640754 0.000000
-7.933014 6.415441 0.000000
-5.357086 5.878337 0.000000
4.747030 0.896753 0.000000
1.706691 -2.239264 0.000000
-12.265255 -2.557311 0.000000
-10.943622 1.922034 0.000000
-13.172284 14.078213 0.000000
-16.993852 28.217961 0.000000
-10.747116 35.120166 0.000000
-6.216548 33.677888 0.000000
12.678680 28.223773 0.000000
15.642468 23.044465 0.000000
8.690531 19.581488 0.000000
9.487614 15.579818 0.000000
23.848870 13.347028 0.000000
15.589342 10.683565 0.000000
-13.450935 6.836357 0.000000
14.586607 -0.074924 0.000000
24.286134 -5.512119 0.000000
8.968052 -6.557464 0.000000
-5.084696 -6.507908 0.000000
-5.742608 -4.244203 0.000000
-14.358787 2.585356 0.000000
-4.833553 10.169762 0.000000
-16.264961 -10.582314 0.000000
-23.483246 -13.989351 0.000000
-11.094514 -2.854284 0.000000
13.804118 14.619561 0.000000
19.417539 19.518515 0.000000
18.515309 6.517971 0.000000
6.838713 1.669184 0.000000
-3.272334 -2.929869 0.000000
3.397883 -15.187407 0.000000
9.997434 -21.883826 0.000000
4.107764 -28.944669 0.000000
-16.374818 -29.369650 0.000000
-20.927649 -20.929347 0.000000
-29.872065 -7.049054 0.000000
-30.439439 9.180237 0.000000
-16.591305 19.768721 0.000000
-4.734959 25.317881 0.000000
15.843625 27.713084 0.000000
21.423609 24.700726 0.000000
15.614557 14.539879 0.000000
13.436105 6.777455 0.000000
24.945874 4.051021 0.000000
17.644243 4.191282 0.000000
-6.237399 -1.499154 0.000000
17.240354 -5.251791 0.000000
20.632995 0.975011 0.000000
7.259536 8.226566 0.000000
-2.831077 8.182181 0.000000
-8.893480 6.637080 0.000000
-23.429999 11.511523 0.000000
-9.913910 19.487099 0.000000
-4.060329 17.978614 0.000000
-25.709218 11.359661 0.000000
-27.259636 20.141739 0.000000
-1.461846 35.201292 0.000000
22.856176 42.313475 0.000000
26.061682 40.656596 0.000000
13.488383 32.789616 0.000000
7.938546 21.075750 0.000000
9.701932 15.164179 0.000000
18.492767 6.717931 0.000000
9.111089 0.554178 0.000000
-19.977928 -1.548165 0.000000
-30.101971 2.853084 0.000000
-38.168365 6.419186 0.000000
-34.343872 -0.823438 0.000000
-26.463696 3.261669 0.000000
-14.507257 19.208322 0.000000
12.342456 28.862358 0.000000
25.936834 31.026766 0.000000
26.724716 26.024383 0.000000
22.447752 14.353313 0.000000
27.900665 6.558870 0.000000
19.408485 3.011272 0.000000
0.181200 -1.150648 0.000000
13.718298 -2.519881 0.000000
11.857341 4.954968 0.000000
4.424338 9.706513 0.000000
-2.737330 11.313291 0.000000
-10.503928 13.278121 0.000000
-30.472813 17.468544 0.000000
-16.396085 24.013951 0.000000
8.499838 19.575079 0.000000
-27.670951 15.771971 0.000000
-35.632625 17.269003 0.000000
-10.331634 20.486704 0.000000
17.719872 27.514284 0.000000
27.861798 32.471844 0.000000
23.489155 28.683641 0.000000
15.660089 22.411137 0.000000
20.149334 10.309905 0.000000
28.174356 -1.807807 0.000000
18.040962 -14.829560 0.000000
-18.086332 -21.552362 0.000000
-29.314392 -27.879150 0.000000
-29.385648 -37.847651 0.000000
-32.150093 -40.337716 0.000000
-36.874768 -33.627751 0.000000
-29.327147 -22.943668 0.000000
2.575962 -7.553897 0.000000
22.507921 2.712534 0.000000
31.884796 5.423902 0.000000
32.117929 0.445459 0.000000
32.639869 -5.185315 0.000000
22.259515 -8.103772 0.000000
6.023510 -12.845805 0.000000
12.715182 -18.652073 0.000000
2.304397 -15.996063 0.000000
-0.787749 -6.009150 0.000000
-6.244940 0.755604 0.000000
-13.523602 5.327091 0.000000
-34.313740 7.165046 0.000000
-24.185134 12.684785 0.000000
14.709977 0.757858 0.000000
-22.458779 -6.210822 0.000000
-33.907858 -14.483467 0.000000
-14.068751 -14.916746 0.000000
6.861806 -6.466479 0.000000
26.784765 -0.221104 0.000000
24.876141 3.046557 0.000000
23.810206 1.533735 0.000000
33.490969 -7.114465 0.000000
42.277548 -21.870759 0.000000
29.114552 -33.710530 0.000000
-6.041524 -48.716781 0.000000
-16.159022 -66.176255 0.000000
-24.586383 -75.408744 0.000000
-42.661426 -67.486706 0.000000
-47.970180 -52.103800 0.000000
-39.651212 -41.592772 0.000000
-6.841415 -36.987944 0.000000
14.915454 -30.788311 0.000000
32.074582 -27.387424 0.000000
38.286816 -29.026127 0.000000
34.597013 -32.244059 0.000000
22.962375 -30.928210 0.000000
9.276121 -29.495346 0.000000
18.176560 -32.097713 0.000000
-1.690146 -36.083748 0.000000
-8.832960 -33.429006 0.000000