# vtk DataFile Version 2.0
cantilever_tri3_mix
ASCII
DATASET POLYDATA
POINTS 1105 float
0.000000 -6.000000 0.000000
48.000000 -6.000000 0.000000
48.000000 6.000000 0.000000
0.000000 6.000000 0.000000
0.750000 -6.000000 0.000000
1.500000 -6.000000 0.000000
2.250000 -6.000000 0.000000
3.000000 -6.000000 0.000000
3.750000 -6.000000 0.000000
4.500000 -6.000000 0.000000
5.250000 -6.000000 0.000000
6.000000 -6.000000 0.000000
6.750000 -6.000000 0.000000
7.500000 -6.000000 0.000000
8.250000 -6.000000 0.000000
9.000000 -6.000000 0.000000
9.750000 -6.000000 0.000000
10.500000 -6.000000 0.000000
11.250000 -6.000000 0.000000
12.000000 -6.000000 0.000000
12.750000 -6.000000 0.000000
13.500000 -6.000000 0.000000
14.250000 -6.000000 0.000000
15.000000 -6.000000 0.000000
15.750000 -6.000000 0.000000
16.500000 -6.000000 0.000000
17.250000 -6.000000 0.000000
18.000000 -6.000000 0.000000
18.750000 -6.000000 0.000000
19.500000 -6.000000 0.000000
20.250000 -6.000000 0.000000
21.000000 -6.000000 0.000000
21.750000 -6.000000 0.000000
22.500000 -6.000000 0.000000
23.250000 -6.000000 0.000000
24.000000 -6.000000 0.000000
24.750000 -6.000000 0.000000
25.500000 -6.000000 0.000000
26.250000 -6.000000 0.000000
27.000000 -6.000000 0.000000
27.750000 -6.000000 0.000000
28.500000 -6.000000 0.000000
29.250000 -6.000000 0.000000
30.000000 -6.000000 0.000000
30.750000 -6.000000 0.000000
31.500000 -6.000000 0.000000
32.250000 -6.000000 0.000000
33.000000 -6.000000 0.000000
33.750000 -6.000000 0.000000
34.500000 -6.000000 0.000000
35.250000 -6.000000 0.000000
36.000000 -6.000000 0.000000
36.750000 -6.000000 0.000000
37.500000 -6.000000 0.000000
38.250000 -6.000000 0.000000
39.000000 -6.000000 0.000000
39.750000 -6.000000 0.000000
40.500000 -6.000000 0.000000
41.250000 -6.000000 0.000000
42.000000 -6.000000 0.000000
42.750000 -6.000000 0.000000
43.500000 -6.000000 0.000000
44.250000 -6.000000 0.000000
45.000000 -6.000000 0.000000
45.750000 -6.000000 0.000000
46.500000 -6.000000 0.000000
47.250000 -6.000000 0.000000
48.000000 -5.250000 0.000000
48.000000 -4.500000 0.000000
48.000000 -3.750000 0.000000
48.000000 -3.000000 0.000000
48.000000 -2.250000 0.000000
48.000000 -1.500000 0.000000
48.000000 -0.750000 0.000000
48.000000 -0.000000 0.000000
48.000000 0.750000 0.000000
48.000000 1.500000 0.000000
48.000000 2.250000 0.000000
48.000000 3.000000 0.000000
48.000000 3.750000 0.000000
48.000000 4.500000 0.000000
48.000000 5.250000 0.000000
47.250000 6.000000 0.000000
46.500000 6.000000 0.000000
45.750000 6.000000 0.000000
45.000000 6.000000 0.000000
44.250000 6.000000 0.000000
43.500000 6.000000 0.000000
42.750000 6.000000 0.000000
42.000000 6.000000 0.000000
41.250000 6.000000 0.000000
40.500000 6.000000 0.000000
39.750000 6.000000 0.000000
39.000000 6.000000 0.000000
38.250000 6.000000 0.000000
37.500000 6.000000 0.000000
36.750000 6.000000 0.000000
36.000000 6.000000 0.000000
35.250000 6.000000 0.000000
34.500000 6.000000 0.000000
33.750000 6.000000 0.000000
33.000000 6.000000 0.000000
32.250000 6.000000 0.000000
31.500000 6.000000 0.000000
30.750000 6.000000 0.000000
30.000000 6.000000 0.000000
29.250000 6.000000 0.000000
28.500000 6.000000 0.000000
27.750000 6.000000 0.000000
27.000000 6.000000 0.000000
26.250000 6.000000 0.000000
25.500000 6.000000 0.000000
24.750000 6.000000 0.000000
24.000000 6.000000 0.000000
23.250000 6.000000 0.000000
22.500000 6.000000 0.000000
21.750000 6.000000 0.000000
21.000000 6.000000 0.000000
20.250000 6.000000 0.000000
19.500000 6.000000 0.000000
18.750000 6.000000 0.000000
18.000000 6.000000 0.000000
17.250000 6.000000 0.000000
16.500000 6.000000 0.000000
15.750000 6.000000 0.000000
15.000000 6.000000 0.000000
14.250000 6.000000 0.000000
13.500000 6.000000 0.000000
12.750000 6.000000 0.000000
12.000000 6.000000 0.000000
11.250000 6.000000 0.000000
10.500000 6.000000 0.000000
9.750000 6.000000 0.000000
9.000000 6.000000 0.000000
8.250000 6.000000 0.000000
7.500000 6.000000 0.000000
6.750000 6.000000 0.000000
6.000000 6.000000 0.000000
5.250000 6.000000 0.000000
4.500000 6.000000 0.000000
3.750000 6.000000 0.000000
3.000000 6.000000 0.000000
2.250000 6.000000 0.000000
1.500000 6.000000 0.000000
0.750000 6.000000 0.000000
0.000000 5.250000 0.000000
0.000000 4.500000 0.000000
0.000000 3.750000 0.000000
0.000000 3.000000 0.000000
0.000000 2.250000 0.000000
0.000000 1.500000 0.000000
0.000000 0.750000 0.000000
0.000000 0.000000 0.000000
0.000000 -0.750000 0.000000
0.000000 -1.500000 0.000000
0.000000 -2.250000 0.000000
0.000000 -3.000000 0.000000
0.000000 -3.750000 0.000000
0.000000 -4.500000 0.000000
0.000000 -5.250000 0.000000
0.750000 -5.250000 0.000000
0.750000 -4.500000 0.000000
0.750000 -3.750000 0.000000
0.750000 -3.000000 0.000000
0.750000 -2.250000 0.000000
0.750000 -1.500000 0.000000
0.750000 -0.750000 0.000000
0.750000 0.000000 0.000000
0.750000 0.750000 0.000000
0.750000 1.500000 0.000000
0.750000 2.250000 0.000000
0.750000 3.000000 0.000000
0.750000 3.750000 0.000000
0.750000 4.500000 0.000000
0.750000 5.250000 0.000000
1.500000 -5.250000 0.000000
1.500000 -4.500000 0.000000
1.500000 -3.750000 0.000000
1.500000 -3.000000 0.000000
1.500000 -2.250000 0.000000
1.500000 -1.500000 0.000000
1.500000 -0.750000 0.000000
1.500000 0.000000 0.000000
1.500000 0.750000 0.000000
1.500000 1.500000 0.000000
1.500000 2.250000 0.000000
1.500000 3.000000 0.000000
1.500000 3.750000 0.000000
1.500000 4.500000 0.000000
1.500000 5.250000 0.000000
2.250000 -5.250000 0.000000
2.250000 -4.500000 0.000000
2.250000 -3.750000 0.000000
2.250000 -3.000000 0.000000
2.250000 -2.250000 0.000000
2.250000 -1.500000 0.000000
2.250000 -0.750000 0.000000
2.250000 0.000000 0.000000
2.250000 0.750000 0.000000
2.250000 1.500000 0.000000
2.250000 2.250000 0.000000
2.250000 3.000000 0.000000
2.250000 3.750000 0.000000
2.250000 4.500000 0.000000
2.250000 5.250000 0.000000
3.000000 -5.250000 0.000000
3.000000 -4.500000 0.000000
3.000000 -3.750000 0.000000
3.000000 -3.000000 0.000000
3.000000 -2.250000 0.000000
3.000000 -1.500000 0.000000
3.000000 -0.750000 0.000000
3.000000 0.000000 0.000000
3.000000 0.750000 0.000000
3.000000 1.500000 0.000000
3.000000 2.250000 0.000000
3.000000 3.000000 0.000000
3.000000 3.750000 0.000000
3.000000 4.500000 0.000000
3.000000 5.250000 0.000000
3.750000 -5.250000 0.000000
3.750000 -4.500000 0.000000
3.750000 -3.750000 0.000000
3.750000 -3.000000 0.000000
3.750000 -2.250000 0.000000
3.750000 -1.500000 0.000000
3.750000 -0.750000 0.000000
3.750000 0.000000 0.000000
3.750000 0.750000 0.000000
3.750000 1.500000 0.000000
3.750000 2.250000 0.000000
3.750000 3.000000 0.000000
3.750000 3.750000 0.000000
3.750000 4.500000 0.000000
3.750000 5.250000 0.000000
4.500000 -5.250000 0.000000
4.500000 -4.500000 0.000000
4.500000 -3.750000 0.000000
4.500000 -3.000000 0.000000
4.500000 -2.250000 0.000000
4.500000 -1.500000 0.000000
4.500000 -0.750000 0.000000
4.500000 0.000000 0.000000
4.500000 0.750000 0.000000
4.500000 1.500000 0.000000
4.500000 2.250000 0.000000
4.500000 3.000000 0.000000
4.500000 3.750000 0.000000
4.500000 4.500000 0.000000
4.500000 5.250000 0.000000
5.250000 -5.250000 0.000000
5.250000 -4.500000 0.000000
5.250000 -3.750000 0.000000
5.250000 -3.000000 0.000000
5.250000 -2.250000 0.000000
5.250000 -1.500000 0.000000
5.250000 -0.750000 0.000000
5.250000 0.000000 0.000000
5.250000 0.750000 0.000000
5.250000 1.500000 0.000000
5.250000 2.250000 0.000000
5.250000 3.000000 0.000000
5.250000 3.750000 0.000000
5.250000 4.500000 0.000000
5.250000 5.250000 0.000000
6.000000 -5.250000 0.000000
6.000000 -4.500000 0.000000
6.000000 -3.750000 0.000000
6.000000 -3.000000 0.000000
6.000000 -2.250000 0.000000
6.000000 -1.500000 0.000000
6.000000 -0.750000 0.000000
6.000000 0.000000 0.000000
6.000000 0.750000 0.000000
6.000000 1.500000 0.000000
6.000000 2.250000 0.000000
6.000000 3.000000 0.000000
6.000000 3.750000 0.000000
6.000000 4.500000 0.000000
6.000000 5.250000 0.000000
6.750000 -5.250000 0.000000
6.750000 -4.500000 0.000000
6.750000 -3.750000 0.000000
6.750000 -3.000000 0.000000
6.750000 -2.250000 0.000000
6.750000 -1.500000 0.000000
6.750000 -0.750000 0.000000
6.750000 0.000000 0.000000
6.750000 0.750000 0.000000
6.750000 1.500000 0.000000
6.750000 2.250000 0.000000
6.750000 3.000000 0.000000
6.750000 3.750000 0.000000
6.750000 4.500000 0.000000
6.750000 5.250000 0.000000
7.500000 -5.250000 0.000000
7.500000 -4.500000 0.000000
7.500000 -3.750000 0.000000
7.500000 -3.000000 0.000000
7.500000 -2.250000 0.000000
7.500000 -1.500000 0.000000
7.500000 -0.750000 0.000000
7.500000 0.000000 0.000000
7.500000 0.750000 0.000000
7.500000 1.500000 0.000000
7.500000 2.250000 0.000000
7.500000 3.000000 0.000000
7.500000 3.750000 0.000000
7.500000 4.500000 0.000000
7.500000 5.250000 0.000000
8.250000 -5.250000 0.000000
8.250000 -4.500000 0.000000
8.250000 -3.750000 0.000000
8.250000 -3.000000 0.000000
8.250000 -2.250000 0.000000
8.250000 -1.500000 0.000000
8.250000 -0.750000 0.000000
8.250000 0.000000 0.000000
8.250000 0.750000 0.000000
8.250000 1.500000 0.000000
8.250000 2.250000 0.000000
8.250000 3.000000 0.000000
8.250000 3.750000 0.000000
8.250000 4.500000 0.000000
8.250000 5.250000 0.000000
9.000000 -5.250000 0.000000
9.000000 -4.500000 0.000000
9.000000 -3.750000 0.000000
9.000000 -3.000000 0.000000
9.000000 -2.250000 0.000000
9.000000 -1.500000 0.000000
9.000000 -0.750000 0.000000
9.000000 0.000000 0.000000
9.000000 0.750000 0.000000
9.000000 1.500000 0.000000
9.000000 2.250000 0.000000
9.000000 3.000000 0.000000
9.000000 3.750000 0.000000
9.000000 4.500000 0.000000
9.000000 5.250000 0.000000
9.750000 -5.250000 0.000000
9.750000 -4.500000 0.000000
9.750000 -3.750000 0.000000
9.750000 -3.000000 0.000000
9.750000 -2.250000 0.000000
9.750000 -1.500000 0.000000
9.750000 -0.750000 0.000000
9.750000 0.000000 0.000000
9.750000 0.750000 0.000000
9.750000 1.500000 0.000000
9.750000 2.250000 0.000000
9.750000 3.000000 0.000000
9.750000 3.750000 0.000000
9.750000 4.500000 0.000000
9.750000 5.250000 0.000000
10.500000 -5.250000 0.000000
[...]
POINT_DATA 1105
VECTORS U float
-0.000000 0.001500 0.000000
0.011993 0.068466 0.000000
-0.011994 0.068465 0.000000
0.000000 0.001498 0.000000
0.000372 0.001569 0.000000
0.000738 0.001685 0.000000
0.001098 0.001847 0.000000
0.001452 0.002053 0.000000
0.001801 0.002304 0.000000
0.002143 0.002597 0.000000
0.002480 0.002933 0.000000
0.002811 0.003310 0.000000
0.003136 0.003729 0.000000
0.003455 0.004188 0.000000
0.003768 0.004686 0.000000
0.004076 0.005224 0.000000
0.004377 0.005799 0.000000
0.004673 0.006411 0.000000
0.004963 0.007061 0.000000
0.005247 0.007746 0.000000
0.005525 0.008466 0.000000
0.005797 0.009221 0.000000
0.006064 0.010009 0.000000
0.006324 0.010830 0.000000
0.006579 0.011684 0.000000
0.006828 0.012569 0.000000
0.007071 0.013484 0.000000
0.007308 0.014430 0.000000
0.007539 0.015405 0.000000
0.007765 0.016408 0.000000
0.007984 0.017440 0.000000
0.008198 0.018498 0.000000
0.008406 0.019583 0.000000
0.008608 0.020693 0.000000
0.008804 0.021829 0.000000
0.008995 0.022988 0.000000
0.009179 0.024171 0.000000
0.009358 0.025377 0.000000
0.009530 0.026604 0.000000
0.009697 0.027853 0.000000
0.009858 0.029122 0.000000
0.010013 0.030411 0.000000
0.010163 0.031719 0.000000
0.010306 0.033046 0.000000
0.010444 0.034389 0.000000
0.010576 0.035750 0.000000
0.010701 0.037127 0.000000
0.010822 0.038519 0.000000
0.010936 0.039926 0.000000
0.011044 0.041347 0.000000
0.011146 0.042781 0.000000
0.011243 0.044227 0.000000
0.011334 0.045685 0.000000
0.011419 0.047155 0.000000
0.011498 0.048634 0.000000
0.011571 0.050123 0.000000
0.011638 0.051620 0.000000
0.011700 0.053126 0.000000
0.011755 0.054639 0.000000
0.011805 0.056159 0.000000
0.011849 0.057684 0.000000
0.011887 0.059215 0.000000
0.011919 0.060750 0.000000
0.011946 0.062288 0.000000
0.011966 0.063830 0.000000
0.011981 0.065374 0.000000
0.011990 0.066919 0.000000
0.010455 0.068466 0.000000
0.008933 0.068466 0.000000
0.007424 0.068466 0.000000
0.005925 0.068466 0.000000
0.004436 0.068465 0.000000
0.002953 0.068465 0.000000
0.001475 0.068465 0.000000
-0.000001 0.068465 0.000000
-0.001478 0.068465 0.000000
-0.002956 0.068465 0.000000
-0.004439 0.068465 0.000000
-0.005928 0.068465 0.000000
-0.007426 0.068465 0.000000
-0.008935 0.068465 0.000000
-0.010457 0.068465 0.000000
-0.011992 0.066919 0.000000
-0.011983 0.065374 0.000000
-0.011968 0.063830 0.000000
-0.011948 0.062289 0.000000
-0.011922 0.060750 0.000000
-0.011889 0.059215 0.000000
-0.011851 0.057685 0.000000
-0.011807 0.056159 0.000000
-0.011758 0.054640 0.000000
-0.011702 0.053127 0.000000
-0.011640 0.051621 0.000000
-0.011573 0.050123 0.000000
-0.011500 0.048634 0.000000
-0.011421 0.047155 0.000000
-0.011336 0.045686 0.000000
-0.011245 0.044228 0.000000
-0.011148 0.042781 0.000000
-0.011046 0.041347 0.000000
-0.010937 0.039927 0.000000
-0.010823 0.038520 0.000000
-0.010703 0.037127 0.000000
-0.010577 0.035751 0.000000
-0.010445 0.034390 0.000000
-0.010308 0.033046 0.000000
-0.010164 0.031720 0.000000
-0.010015 0.030411 0.000000
-0.009860 0.029122 0.000000
-0.009699 0.027853 0.000000
-0.009532 0.026604 0.000000
-0.009359 0.025377 0.000000
-0.009180 0.024171 0.000000
-0.008996 0.022988 0.000000
-0.008805 0.021829 0.000000
-0.008609 0.020694 0.000000
-0.008407 0.019583 0.000000
-0.008199 0.018499 0.000000
-0.007985 0.017440 0.000000
-0.007766 0.016409 0.000000
-0.007540 0.015405 0.000000
-0.007309 0.014430 0.000000
-0.007072 0.013485 0.000000
-0.006829 0.012569 0.000000
-0.006580 0.011684 0.000000
-0.006325 0.010830 0.000000
-0.006064 0.010009 0.000000
-0.005798 0.009221 0.000000
-0.005526 0.008466 0.000000
-0.005247 0.007746 0.000000
-0.004963 0.007061 0.000000
-0.004673 0.006412 0.000000
-0.004378 0.005799 0.000000
-0.004076 0.005224 0.000000
-0.003769 0.004687 0.000000
-0.003455 0.004188 0.000000
-0.003136 0.003729 0.000000
-0.002811 0.003311 0.000000
-0.002480 0.002933 0.000000
-0.002143 0.002597 0.000000
-0.001801 0.002304 0.000000
-0.001452 0.002054 0.000000
-0.001098 0.001847 0.000000
-0.000738 0.001686 0.000000
-0.000371 0.001570 0.000000
0.000038 0.001148 0.000000
0.000062 0.000844 0.000000
0.000071 0.000586 0.000000
0.000070 0.000375 0.000000
0.000060 0.000211 0.000000
0.000044 0.000094 0.000000
0.000023 0.000023 0.000000
0.000000 -0.000000 0.000000
-0.000023 0.000023 0.000000
-0.000044 0.000094 0.000000
-0.000060 0.000211 0.000000
-0.000070 0.000375 0.000000
-0.000071 0.000585 0.000000
-0.000062 0.000843 0.000000
-0.000038 0.001148 0.000000
0.000287 0.001223 0.000000
0.000218 0.000924 0.000000
0.000161 0.000670 0.000000
0.000116 0.000462 0.000000
0.000079 0.000301 0.000000
0.000049 0.000186 0.000000
0.000023 0.000117 0.000000
-0.000000 0.000094 0.000000
-0.000023 0.000117 0.000000
-0.000049 0.000186 0.000000
-0.000079 0.000301 0.000000
-0.000116 0.000463 0.000000
-0.000161 0.000671 0.000000
-0.000218 0.000924 0.000000
-0.000287 0.001224 0.000000
0.000607 0.001345 0.000000
0.000492 0.001050 0.000000
0.000390 0.000801 0.000000
0.000299 0.000596 0.000000
0.000216 0.000438 0.000000
0.000141 0.000324 0.000000
0.000069 0.000256 0.000000
-0.000000 0.000234 0.000000
-0.000069 0.000256 0.000000
-0.000141 0.000324 0.000000
-0.000217 0.000438 0.000000
-0.000299 0.000597 0.000000
-0.000390 0.000801 0.000000
-0.000492 0.001050 0.000000
-0.000607 0.001345 0.000000
0.000923 0.001512 0.000000
0.000762 0.001222 0.000000
0.000615 0.000977 0.000000
0.000479 0.000776 0.000000
0.000351 0.000619 0.000000
0.000231 0.000508 0.000000
0.000114 0.000441 0.000000
-0.000000 0.000419 0.000000
-0.000114 0.000441 0.000000
-0.000231 0.000508 0.000000
-0.000352 0.000620 0.000000
-0.000479 0.000776 0.000000
-0.000615 0.000977 0.000000
-0.000762 0.001222 0.000000
-0.000922 0.001513 0.000000
0.001233 0.001724 0.000000
0.001028 0.001439 0.000000
0.000836 0.001197 0.000000
0.000656 0.001000 0.000000
0.000484 0.000846 0.000000
0.000319 0.000736 0.000000
0.000158 0.000670 0.000000
-0.000000 0.000648 0.000000
-0.000159 0.000670 0.000000
-0.000319 0.000736 0.000000
-0.000485 0.000846 0.000000
-0.000656 0.001000 0.000000
-0.000837 0.001197 0.000000
-0.001028 0.001439 0.000000
-0.001232 0.001724 0.000000
0.001537 0.001980 0.000000
0.001289 0.001699 0.000000
0.001054 0.001462 0.000000
0.000830 0.001267 0.000000
0.000615 0.001116 0.000000
0.000406 0.001008 0.000000
0.000202 0.000944 0.000000
-0.000000 0.000922 0.000000
-0.000202 0.000944 0.000000
-0.000407 0.001008 0.000000
-0.000615 0.001116 0.000000
-0.000830 0.001267 0.000000
-0.001054 0.001462 0.000000
-0.001289 0.001699 0.000000
-0.001537 0.001980 0.000000
0.001837 0.002279 0.000000
0.001546 0.002003 0.000000
0.001268 0.001769 0.000000
0.001001 0.001578 0.000000
0.000743 0.001430 0.000000
0.000492 0.001324 0.000000
0.000245 0.001260 0.000000
-0.000000 0.001239 0.000000
-0.000245 0.001260 0.000000
-0.000492 0.001324 0.000000
-0.000744 0.001430 0.000000
-0.001002 0.001578 0.000000
-0.001269 0.001769 0.000000
-0.001546 0.002003 0.000000
-0.001837 0.002279 0.000000
0.002132 0.002620 0.000000
0.001799 0.002349 0.000000
0.001479 0.002120 0.000000
0.001170 0.001932 0.000000
0.000870 0.001786 0.000000
0.000576 0.001682 0.000000
0.000287 0.001619 0.000000
-0.000000 0.001598 0.000000
-0.000287 0.001619 0.000000
-0.000576 0.001682 0.000000
-0.000870 0.001786 0.000000
-0.001170 0.001932 0.000000
-0.001479 0.002120 0.000000
-0.001799 0.002349 0.000000
-0.002132 0.002620 0.000000
0.002421 0.003003 0.000000
0.002047 0.002737 0.000000
0.001686 0.002511 0.000000
0.001335 0.002327 0.000000
0.000994 0.002184 0.000000
0.000659 0.002081 0.000000
0.000328 0.002020 0.000000
-0.000000 0.001999 0.000000
-0.000329 0.002020 0.000000
-0.000659 0.002081 0.000000
-0.000994 0.002184 0.000000
-0.001336 0.002327 0.000000
-0.001686 0.002512 0.000000
-0.002047 0.002737 0.000000
-0.002422 0.003003 0.000000
0.002706 0.003427 0.000000
0.002291 0.003166 0.000000
0.001889 0.002944 0.000000
0.001498 0.002763 0.000000
0.001116 0.002622 0.000000
0.000740 0.002522 0.000000
0.000369 0.002461 0.000000
-0.000000 0.002441 0.000000
-0.000369 0.002461 0.000000
-0.000740 0.002522 0.000000
-0.001116 0.002622 0.000000
-0.001498 0.002763 0.000000
-0.001889 0.002944 0.000000
-0.002291 0.003166 0.000000
-0.002706 0.003427 0.000000
0.002985 0.003892 0.000000
0.002530 0.003635 0.000000
0.002088 0.003417 0.000000
0.001657 0.003240 0.000000
0.001235 0.003101 0.000000
0.000820 0.003003 0.000000
0.000409 0.002943 0.000000
-0.000000 0.002924 0.000000
-0.000409 0.002943 0.000000
-0.000820 0.003003 0.000000
-0.001236 0.003101 0.000000
-0.001658 0.003240 0.000000
-0.002088 0.003418 0.000000
-0.002530 0.003635 0.000000
-0.002985 0.003892 0.000000
0.003259 0.004396 0.000000
0.002765 0.004143 0.000000
0.002284 0.003930 0.000000
0.001814 0.003756 0.000000
0.001353 0.003620 0.000000
0.000898 0.003523 0.000000
0.000448 0.003465 0.000000
-0.000000 0.003445 0.000000
-0.000448 0.003465 0.000000
-0.000898 0.003523 0.000000
-0.001353 0.003620 0.000000
-0.001814 0.003756 0.000000
-0.002284 0.003930 0.000000
-0.002765 0.004144 0.000000
-0.003259 0.004396 0.000000
0.003528 0.004938 0.000000
0.002995 0.004691 0.000000
0.002476 0.004482 0.000000
0.001968 0.004310 0.000000
0.001468 0.004177 0.000000
0.000975 0.004082 0.000000
0.000486 0.004025 0.000000
-0.000000 0.004006 0.000000
-0.000487 0.004025 0.000000
-0.000975 0.004082 0.000000
-0.001468 0.004177 0.000000
-0.001968 0.004311 0.000000
-0.002476 0.004482 0.000000
-0.002996 0.004691 0.000000
-0.003529 0.004938 0.000000
0.003792 0.005519 0.000000
0.003222 0.005276 0.000000
0.002665 0.005071 0.000000
0.002118 0.004903 0.000000
0.001581 0.004773 0.000000
0.001050 0.004679 0.000000
0.000524 0.004623 0.000000
-0.000000 0.004605 0.000000
-0.000524 0.004623 0.000000
-0.001051 0.004679 0.000000
-0.001582 0.004773 0.000000
-0.002119 0.004903 0.000000
-0.002665 0.005071 0.000000
-0.003222 0.005277 0.000000
-0.003792 0.005519 0.000000
0.004051 0.006137 0.000000
0.003443 0.005899 0.000000
0.002849 0.005698 0.000000
0.002266 0.005533 0.000000
0.001692 0.005405 0.000000
0.001124 0.005314 0.000000
0.000561 0.005259 0.000000
-0.000000 0.005241 0.000000
-0.000561 0.005259 0.000000
-0.001125 0.005314 0.000000
-0.001692 0.005406 0.000000
-0.002267 0.005534 0.000000
-0.002850 0.005698 0.000000
-0.003444 0.005899 0.000000
-0.004051 0.006137 0.000000
0.004304 0.006792 0.000000
0.003661 0.006559 0.000000
0.003031 0.006362 0.000000
0.002411 0.006200 0.000000
0.001801 0.006075 0.000000
0.001197 0.005985 0.000000
0.000597 0.005931 0.000000
-0.000000 0.005913 0.000000
-0.000598 0.005931 0.000000
-0.001197 0.005985 0.000000
-0.001801 0.006075 0.000000
-0.002412 0.006200 0.000000
-0.003031 0.006362 0.000000
-0.003661 0.006559 0.000000
-0.004305 0.006792 0.000000
0.004553 0.007482 0.000000
0.003874 0.007254 0.000000
0.003208 0.007061 0.000000
0.002553 0.006903 0.000000
0.001907 0.006780 0.000000
0.001268 0.006692 0.000000
0.000633 0.006640 0.000000
-0.000000 0.006622 0.000000
-0.000633 0.006640 0.000000
-0.001268 0.006692 0.000000
-0.001908 0.006780 0.000000
-0.002554 0.006903 0.000000
-0.003209 0.007061 0.000000
-0.003874 0.007254 0.000000
-0.004553 0.007483 0.000000
0.004796 0.008208 0.000000
0.004082 0.007985 0.000000
0.003382 0.007795 0.000000
0.002692 0.007641 0.000000
0.002011 0.007520 0.000000
0.001337 0.007434 0.000000
0.000667 0.007383 0.000000
-0.000000 0.007366 0.000000
-0.000668 0.007383 0.000000
-0.001338 0.007434 0.000000
-0.002012 0.007520 0.000000
-0.002693 0.007641 0.000000
-0.003383 0.007796 0.000000
-0.004083 0.007985 0.000000
-0.004797 0.008208 0.000000
0.005034 0.008968 0.000000
0.004287 0.008749 0.000000
0.003552 0.008564 0.000000
0.002828 0.008413 0.000000
0.002114 0.008295 0.000000
0.001405 0.008211 0.000000
0.000701 0.008160 0.000000
-0.000000 0.008144 0.000000
-0.000702 0.008160 0.000000
-0.001406 0.008211 0.000000
-0.002114 0.008295 0.000000
-0.002829 0.008413 0.000000
-0.003553 0.008564 0.000000
-0.004287 0.008750 0.000000
-0.005035 0.008968 0.000000
0.005268 0.009762 0.000000
0.004486 0.009548 0.000000
0.003719 0.009367 0.000000
0.002962 0.009219 0.000000
0.002213 0.009103 0.000000
0.001472 0.009021 0.000000
0.000735 0.008972 0.000000
-0.000000 0.008955 0.000000
-0.000735 0.008972 0.000000
-0.001473 0.009021 0.000000
-0.002214 0.009104 0.000000
-0.002962 0.009219 0.000000
-0.003719 0.009367 0.000000
-0.004487 0.009548 0.000000
-0.005268 0.009762 0.000000
0.005496 0.010589 0.000000
0.004682 0.010379 0.000000
0.003881 0.010202 0.000000
0.003092 0.010058 0.000000
0.002311 0.009945 0.000000
0.001537 0.009864 0.000000
0.000767 0.009816 0.000000
-0.000000 0.009800 0.000000
-0.000768 0.009816 0.000000
-0.001538 0.009864 0.000000
-0.002312 0.009945 0.000000
-0.003093 0.010058 0.000000
-0.003882 0.010203 0.000000
-0.004683 0.010380 0.000000
-0.005496 0.010589 0.000000
0.005719 0.011448 0.000000
0.004873 0.011243 0.000000
0.004041 0.011070 0.000000
0.003219 0.010929 0.000000
0.002407 0.010818 0.000000
0.001601 0.010740 0.000000
0.000799 0.010693 0.000000
-0.000000 0.010677 0.000000
-0.000800 0.010693 0.000000
-0.001601 0.010740 0.000000
-0.002407 0.010819 0.000000
-0.003220 0.010929 0.000000
-0.004041 0.011070 0.000000
-0.004874 0.011243 0.000000
-0.005719 0.011448 0.000000
0.005936 0.012338 0.000000
0.005060 0.012138 0.000000
0.004196 0.011969 0.000000
0.003344 0.011831 0.000000
0.002500 0.011723 0.000000
0.001663 0.011647 0.000000
0.000830 0.011601 0.000000
-0.000000 0.011585 0.000000
-0.000831 0.011601 0.000000
-0.001664 0.011647 0.000000
-0.002501 0.011724 0.000000
-0.003344 0.011831 0.000000
-0.004197 0.011970 0.000000
-0.005060 0.012139 0.000000
-0.005937 0.012338 0.000000
0.006149 0.013259 0.000000
0.005242 0.013064 0.000000
0.004348 0.012899 0.000000
0.003465 0.012764 0.000000
0.002591 0.012659 0.000000
0.001724 0.012584 0.000000
0.000860 0.012539 0.000000
-0.000000 0.012524 0.000000
-0.000861 0.012539 0.000000
-0.001724 0.012584 0.000000
-0.002592 0.012659 0.000000
-0.003466 0.012764 0.000000
-0.004349 0.012899 0.000000
-0.005243 0.013064 0.000000
-0.006150 0.013260 0.000000
0.006356 0.014210 0.000000
0.005420 0.014020 0.000000
0.004496 0.013859 0.000000
0.003584 0.013728 0.000000
0.002680 0.013625 0.000000
0.001783 0.013552 0.000000
0.000890 0.013508 0.000000
-0.000000 0.013493 0.000000
-0.000891 0.013508 0.000000
-0.001784 0.013552 0.000000
-0.002681 0.013625 0.000000
-0.003585 0.013728 0.000000
-0.004497 0.013859 0.000000
-0.005421 0.014020 0.000000
-0.006357 0.014211 0.000000
0.006559 0.015191 0.000000
0.005593 0.015005 0.000000
0.004641 0.014848 0.000000
0.003699 0.014720 0.000000
0.002767 0.014620 0.000000
0.001841 0.014549 0.000000
0.000919 0.014506 0.000000
-0.000000 0.014492 0.000000
-0.000920 0.014506 0.000000
-0.001842 0.014549 0.000000
-0.002768 0.014620 0.000000
-0.003700 0.014720 0.000000
-0.004642 0.014849 0.000000
-0.005594 0.015006 0.000000
-0.006560 0.015191 0.000000
0.006756 0.016200 0.000000
0.005762 0.016019 0.000000
0.004782 0.015866 0.000000
0.003812 0.015741 0.000000
0.002851 0.015644 0.000000
0.001897 0.015574 0.000000
0.000947 0.015533 0.000000
-0.000000 0.015519 0.000000
-0.000948 0.015533 0.000000
-0.001898 0.015574 0.000000
-0.002852 0.015644 0.000000
-0.003813 0.015741 0.000000
-0.004783 0.015866 0.000000
-0.005763 0.016019 0.000000
-0.006757 0.016200 0.000000
0.006948 0.017237 0.000000
0.005927 0.017061 0.000000
0.004919 0.016912 0.000000
0.003922 0.016790 0.000000
0.002934 0.016695 0.000000
0.001952 0.016628 0.000000
0.000975 0.016587 0.000000
-0.000001 0.016574 0.000000
-0.000976 0.016587 0.000000
-0.001953 0.016628 0.000000
-0.002935 0.016695 0.000000
-0.003923 0.016790 0.000000
-0.004920 0.016912 0.000000
-0.005928 0.017061 0.000000
-0.006949 0.017237 0.000000
0.007135 0.018301 0.000000
0.006087 0.018129 0.000000
0.005053 0.017985 0.000000
0.004029 0.017866 0.000000
0.003014 0.017774 0.000000
0.002005 0.017708 0.000000
0.001001 0.017669 0.000000
-0.000001 0.017655 0.000000
-0.001002 0.017669 0.000000
-0.002006 0.017708 0.000000
-0.003015 0.017774 0.000000
-0.004030 0.017866 0.000000
-0.005054 0.017985 0.000000
-0.006088 0.018130 0.000000
-0.007136 0.018301 0.000000
0.007317 0.019391 0.000000
0.006243 0.019224 0.000000
0.005182 0.019084 0.000000
0.004133 0.018968 0.000000
0.003092 0.018879 0.000000
0.002057 0.018815 0.000000
0.001027 0.018776 0.000000
-0.000001 0.018764 0.000000
-0.001028 0.018776 0.000000
-0.002058 0.018815 0.000000
-0.003093 0.018879 0.000000
-0.004134 0.018969 0.000000
-0.005184 0.019084 0.000000
-0.006244 0.019225 0.000000
-0.007318 0.019391 0.000000
0.007494 0.020507 0.000000
0.006395 0.020345 0.000000
0.005309 0.020208 0.000000
0.004234 0.020096 0.000000
0.003167 0.020009 0.000000
0.002108 0.019947 0.000000
0.001052 0.019910 0.000000
-0.000001 0.019897 0.000000
-0.001054 0.019910 0.000000
-0.002109 0.019947 0.000000
-0.003169 0.020009 0.000000
-0.004235 0.020097 0.000000
-0.005310 0.020208 0.000000
-0.006396 0.020345 0.000000
-0.007495 0.020507 0.000000
0.007666 0.021648 0.000000
0.006542 0.021491 0.000000
0.005431 0.021358 0.000000
0.004332 0.021249 0.000000
0.003241 0.021165 0.000000
0.002157 0.021104 0.000000
0.001077 0.021068 0.000000
-0.000001 0.021056 0.000000
-0.001078 0.021068 0.000000
-0.002158 0.021104 0.000000
-0.003242 0.021165 0.000000
-0.004333 0.021249 0.000000
-0.005433 0.021358 0.000000
-0.006543 0.021491 0.000000
-0.007667 0.021648 0.000000
0.007832 0.022813 0.000000
0.006684 0.022660 0.000000
0.005550 0.022532 0.000000
0.004427 0.022426 0.000000
0.003312 0.022344 0.000000
0.002204 0.022286 0.000000
0.001101 0.022251 0.000000
-0.000001 0.022239 0.000000
-0.001102 0.022251 0.000000
-0.002206 0.022286 0.000000
-0.003314 0.022344 0.000000
-0.004428 0.022426 0.000000
-0.005551 0.022532 0.000000
-0.006686 0.022661 0.000000
-0.007833 0.022813 0.000000
0.007993 0.024001 0.000000
0.006823 0.023853 0.000000
0.005666 0.023729 0.000000
0.004519 0.023627 0.000000
0.003381 0.023547 0.000000
0.002250 0.023491 0.000000
0.001124 0.023457 0.000000
-0.000001 0.023445 0.000000
-0.001125 0.023457 0.000000
-0.002252 0.023491 0.000000
-0.003383 0.023547 0.000000
-0.004520 0.023627 0.000000
-0.005667 0.023729 0.000000
-0.006824 0.023854 0.000000
-0.007995 0.024001 0.000000
0.008150 0.025212 0.000000
0.006957 0.025069 0.000000
0.005777 0.024949 0.000000
0.004608 0.024850 0.000000
0.003448 0.024773 0.000000
0.002295 0.024718 0.000000
0.001146 0.024685 0.000000
-0.000001 0.024674 0.000000
-0.001147 0.024685 0.000000
-0.002296 0.024718 0.000000
-0.003450 0.024773 0.000000
-0.004610 0.024850 0.000000
-0.005778 0.024949 0.000000
-0.006958 0.025070 0.000000
-0.008151 0.025212 0.000000
0.008301 0.026445 0.000000
0.007086 0.026307 0.000000
0.005885 0.026190 0.000000
0.004695 0.026095 0.000000
0.003513 0.026021 0.000000
0.002338 0.025968 0.000000
0.001168 0.025936 0.000000
-0.000001 0.025925 0.000000
-0.001169 0.025936 0.000000
-0.002340 0.025968 0.000000
-0.003515 0.026021 0.000000
-0.004696 0.026095 0.000000
-0.005886 0.026191 0.000000
-0.007088 0.026307 0.000000
-0.008302 0.026445 0.000000
0.008447 0.027699 0.000000
0.007211 0.027566 0.000000
0.005989 0.027453 0.000000
0.004778 0.027361 0.000000
0.003576 0.027290 0.000000
0.002380 0.027238 0.000000
0.001189 0.027208 0.000000
-0.000001 0.027197 0.000000
-0.001190 0.027208 0.000000
-0.002381 0.027238 0.000000
-0.003577 0.027290 0.000000
-0.004780 0.027361 0.000000
-0.005991 0.027454 0.000000
-0.007213 0.027566 0.000000
-0.008448 0.027699 0.000000
0.008588 0.028974 0.000000
0.007332 0.028846 0.000000
0.006090 0.028737 0.000000
0.004859 0.028648 0.000000
0.003636 0.028579 0.000000
0.002420 0.028530 0.000000
0.001209 0.028500 0.000000
-0.000001 0.028490 0.000000
-0.001210 0.028500 0.000000
-0.002422 0.028530 0.000000
-0.003638 0.028579 0.000000
-0.004860 0.028648 0.000000
-0.006091 0.028737 0.000000
-0.007334 0.028846 0.000000
-0.008589 0.028974 0.000000
0.008724 0.030268 0.000000
0.007449 0.030145 0.000000
0.006187 0.030040 0.000000
0.004936 0.029955 0.000000
0.003694 0.029888 0.000000
0.002459 0.029840 0.000000
0.001228 0.029812 0.000000
-0.000001 0.029802 0.000000
-0.001230 0.029812 0.000000
-0.002460 0.029841 0.000000