# vtk DataFile Version 2.0
cantilever_tri3_mix
ASCII
DATASET POLYDATA
POINTS 85 float
0.000000 -6.000000 0.000000
48.000000 -6.000000 0.000000
48.000000 6.000000 0.000000
0.000000 6.000000 0.000000
3.000000 -6.000000 0.000000
6.000000 -6.000000 0.000000
9.000000 -6.000000 0.000000
12.000000 -6.000000 0.000000
15.000000 -6.000000 0.000000
18.000000 -6.000000 0.000000
21.000000 -6.000000 0.000000
24.000000 -6.000000 0.000000
27.000000 -6.000000 0.000000
30.000000 -6.000000 0.000000
33.000000 -6.000000 0.000000
36.000000 -6.000000 0.000000
39.000000 -6.000000 0.000000
42.000000 -6.000000 0.000000
45.000000 -6.000000 0.000000
48.000000 -3.000000 0.000000
48.000000 -0.000000 0.000000
48.000000 3.000000 0.000000
45.000000 6.000000 0.000000
42.000000 6.000000 0.000000
39.000000 6.000000 0.000000
36.000000 6.000000 0.000000
33.000000 6.000000 0.000000
30.000000 6.000000 0.000000
27.000000 6.000000 0.000000
24.000000 6.000000 0.000000
21.000000 6.000000 0.000000
18.000000 6.000000 0.000000
15.000000 6.000000 0.000000
12.000000 6.000000 0.000000
9.000000 6.000000 0.000000
6.000000 6.000000 0.000000
3.000000 6.000000 0.000000
0.000000 3.000000 0.000000
0.000000 0.000000 0.000000
0.000000 -3.000000 0.000000
3.000000 -3.000000 0.000000
3.000000 0.000000 0.000000
3.000000 3.000000 0.000000
6.000000 -3.000000 0.000000
6.000000 0.000000 0.000000
6.000000 3.000000 0.000000
9.000000 -3.000000 0.000000
9.000000 0.000000 0.000000
9.000000 3.000000 0.000000
12.000000 -3.000000 0.000000
12.000000 0.000000 0.000000
12.000000 3.000000 0.000000
15.000000 -3.000000 0.000000
15.000000 0.000000 0.000000
15.000000 3.000000 0.000000
18.000000 -3.000000 0.000000
18.000000 0.000000 0.000000
18.000000 3.000000 0.000000
21.000000 -3.000000 0.000000
21.000000 0.000000 0.000000
21.000000 3.000000 0.000000
24.000000 -3.000000 0.000000
24.000000 -0.000000 0.000000
24.000000 3.000000 0.000000
27.000000 -3.000000 0.000000
27.000000 -0.000000 0.000000
27.000000 3.000000 0.000000
30.000000 -3.000000 0.000000
30.000000 -0.000000 0.000000
30.000000 3.000000 0.000000
33.000000 -3.000000 0.000000
33.000000 -0.000000 0.000000
33.000000 3.000000 0.000000
36.000000 -3.000000 0.000000
36.000000 -0.000000 0.000000
36.000000 3.000000 0.000000
39.000000 -3.000000 0.000000
39.000000 -0.000000 0.000000
39.000000 3.000000 0.000000
42.000000 -3.000000 0.000000
42.000000 -0.000000 0.000000
42.000000 3.000000 0.000000
45.000000 -3.000000 0.000000
45.000000 -0.000000 0.000000
45.000000 3.000000 0.000000
POLYGONS 128 512
3 0 4 39
3 39 4 40
3 39 40 38
3 38 40 41
3 38 41 37
3 37 41 42
3 37 42 3
3 3 42 36
3 4 5 40
3 40 5 43
3 40 43 41
3 41 43 44
3 41 44 42
3 42 44 45
3 42 45 36
3 36 45 35
3 5 6 43
3 43 6 46
3 43 46 44
3 44 46 47
3 44 47 45
3 45 47 48
3 45 48 35
3 35 48 34
3 6 7 46
3 46 7 49
3 46 49 47
3 47 49 50
3 47 50 48
3 48 50 51
3 48 51 34
3 34 51 33
3 7 8 49
3 49 8 52
3 49 52 50
3 50 52 53
3 50 53 51
3 51 53 54
3 51 54 33
3 33 54 32
3 8 9 52
3 52 9 55
3 52 55 53
3 53 55 56
3 53 56 54
3 54 56 57
3 54 57 32
3 32 57 31
3 9 10 55
3 55 10 58
3 55 58 56
3 56 58 59
3 56 59 57
3 57 59 60
3 57 60 31
3 31 60 30
3 10 11 58
3 58 11 61
3 58 61 59
3 59 61 62
3 59 62 60
3 60 62 63
3 60 63 30
3 30 63 29
3 11 12 61
3 61 12 64
3 61 64 62
3 62 64 65
3 62 65 63
3 63 65 66
3 63 66 29
3 29 66 28
3 12 13 64
3 64 13 67
3 64 67 65
3 65 67 68
3 65 68 66
3 66 68 69
3 66 69 28
3 28 69 27
3 13 14 67
3 67 14 70
3 67 70 68
3 68 70 71
3 68 71 69
3 69 71 72
3 69 72 27
3 27 72 26
3 14 15 70
3 70 15 73
3 70 73 71
3 71 73 74
3 71 74 72
3 72 74 75
3 72 75 26
3 26 75 25
3 15 16 73
3 73 16 76
3 73 76 74
3 74 76 77
3 74 77 75
3 75 77 78
3 75 78 25
3 25 78 24
3 16 17 76
3 76 17 79
3 76 79 77
3 77 79 80
3 77 80 78
3 78 80 81
3 78 81 24
3 24 81 23
3 17 18 79
3 79 18 82
3 79 82 80
3 80 82 83
3 80 83 81
3 81 83 84
3 81 84 23
3 23 84 22
3 18 1 82
3 82 1 19
3 82 19 83
3 83 19 20
3 83 20 84
3 84 20 21
3 84 21 22
3 22 21 2
POINT_DATA 85
SCALARS P float
LOOKUP_TABLE default
-1149897.834882
-29981368.425240
-29991716.056173
-13994020371.575272
-28177759136.129505
-7591288141.528962
5155655056.500469
-9279610983.545736
4422785172.877428
7615176942.177777
-759354826.435178
-1069964685.653511
5968971946.064800
-363571089.733976
-2372362118.717849
-136117853.309082
400669090.898443
36301588.410242
-29984024.065608
-29977915.507902
-29990058.172030
-29993446.248168
-29992857.158530
-29962692.676789
-129242123.098297
-155020054.146901
-232191717.915613
135074622.950967
-27180005.041932
-12227778.645352
179363250.731039
-1509918347.336237
-1688024261.079654
-1067155366.607538
7125599386.735409
13236299713.697561
-3756187908.615032
-6196045526.858608
-850495578.400641
-4988063588.891639
-13275218954.630739
19356898527.564903
8605099148.473701
9517786962.514116
20404282052.195797
-704168772.315464
-10289331167.292387
-11320950901.563093
-1994561029.184566
-7886338196.585433
-2901162831.367526
642350242.324430
7212196690.464138
2262246731.301063
587795884.958205
-2402670618.720239
-2209055190.293564
-1349931382.210540
-988711918.844699
1093300418.131840
-648401511.817424
2639451349.648641
1997068572.988121
-670502310.449386
4487808346.800145
-1019443135.177510
118477224.158448
-4628759144.067369
-2635804508.316021
46672258.988452
331831346.505858
1611417812.138996
-314081392.013097
2316425914.850117
385290417.198558
-284790176.155869
226708297.162605
-104442764.693179
-263539781.374282
13815546.412339
-31457346.589156
-30861018.756234
-29971144.965074
-29986047.809385
-29995570.963717
