# vtk DataFile Version 2.0
cantilever_tri3_mix
ASCII
DATASET POLYDATA
POINTS 85 float
0.000000 -6.000000 0.000000
48.000000 -6.000000 0.000000
48.000000 6.000000 0.000000
0.000000 6.000000 0.000000
3.000000 -6.000000 0.000000
6.000000 -6.000000 0.000000
9.000000 -6.000000 0.000000
12.000000 -6.000000 0.000000
15.000000 -6.000000 0.000000
18.000000 -6.000000 0.000000
21.000000 -6.000000 0.000000
24.000000 -6.000000 0.000000
27.000000 -6.000000 0.000000
30.000000 -6.000000 0.000000
33.000000 -6.000000 0.000000
36.000000 -6.000000 0.000000
39.000000 -6.000000 0.000000
42.000000 -6.000000 0.000000
45.000000 -6.000000 0.000000
48.000000 -3.000000 0.000000
48.000000 -0.000000 0.000000
48.000000 3.000000 0.000000
45.000000 6.000000 0.000000
42.000000 6.000000 0.000000
39.000000 6.000000 0.000000
36.000000 6.000000 0.000000
33.000000 6.000000 0.000000
30.000000 6.000000 0.000000
27.000000 6.000000 0.000000
24.000000 6.000000 0.000000
21.000000 6.000000 0.000000
18.000000 6.000000 0.000000
15.000000 6.000000 0.000000
12.000000 6.000000 0.000000
9.000000 6.000000 0.000000
6.000000 6.000000 0.000000
3.000000 6.000000 0.000000
0.000000 3.000000 0.000000
0.000000 0.000000 0.000000
0.000000 -3.000000 0.000000
3.000000 -3.000000 0.000000
3.000000 0.000000 0.000000
3.000000 3.000000 0.000000
6.000000 -3.000000 0.000000
6.000000 0.000000 0.000000
6.000000 3.000000 0.000000
9.000000 -3.000000 0.000000
9.000000 0.000000 0.000000
9.000000 3.000000 0.000000
12.000000 -3.000000 0.000000
12.000000 0.000000 0.000000
12.000000 3.000000 0.000000
15.000000 -3.000000 0.000000
15.000000 0.000000 0.000000
15.000000 3.000000 0.000000
18.000000 -3.000000 0.000000
18.000000 0.000000 0.000000
18.000000 3.000000 0.000000
21.000000 -3.000000 0.000000
21.000000 0.000000 0.000000
21.000000 3.000000 0.000000
24.000000 -3.000000 0.000000
24.000000 -0.000000 0.000000
24.000000 3.000000 0.000000
27.000000 -3.000000 0.000000
27.000000 -0.000000 0.000000
27.000000 3.000000 0.000000
30.000000 -3.000000 0.000000
30.000000 -0.000000 0.000000
30.000000 3.000000 0.000000
33.000000 -3.000000 0.000000
33.000000 -0.000000 0.000000
33.000000 3.000000 0.000000
36.000000 -3.000000 0.000000
36.000000 -0.000000 0.000000
36.000000 3.000000 0.000000
39.000000 -3.000000 0.000000
39.000000 -0.000000 0.000000
39.000000 3.000000 0.000000
42.000000 -3.000000 0.000000
42.000000 -0.000000 0.000000
42.000000 3.000000 0.000000
45.000000 -3.000000 0.000000
45.000000 -0.000000 0.000000
45.000000 3.000000 0.000000
POLYGONS 128 512
3 0 4 39
3 39 4 40
3 39 40 38
3 38 40 41
3 38 41 37
3 37 41 42
3 37 42 3
3 3 42 36
3 4 5 40
3 40 5 43
3 40 43 41
3 41 43 44
3 41 44 42
3 42 44 45
3 42 45 36
3 36 45 35
3 5 6 43
3 43 6 46
3 43 46 44
3 44 46 47
3 44 47 45
3 45 47 48
3 45 48 35
3 35 48 34
3 6 7 46
3 46 7 49
3 46 49 47
3 47 49 50
3 47 50 48
3 48 50 51
3 48 51 34
3 34 51 33
3 7 8 49
3 49 8 52
3 49 52 50
3 50 52 53
3 50 53 51
3 51 53 54
3 51 54 33
3 33 54 32
3 8 9 52
3 52 9 55
3 52 55 53
3 53 55 56
3 53 56 54
3 54 56 57
3 54 57 32
3 32 57 31
3 9 10 55
3 55 10 58
3 55 58 56
3 56 58 59
3 56 59 57
3 57 59 60
3 57 60 31
3 31 60 30
3 10 11 58
3 58 11 61
3 58 61 59
3 59 61 62
3 59 62 60
3 60 62 63
3 60 63 30
3 30 63 29
3 11 12 61
3 61 12 64
3 61 64 62
3 62 64 65
3 62 65 63
3 63 65 66
3 63 66 29
3 29 66 28
3 12 13 64
3 64 13 67
3 64 67 65
3 65 67 68
3 65 68 66
3 66 68 69
3 66 69 28
3 28 69 27
3 13 14 67
3 67 14 70
3 67 70 68
3 68 70 71
3 68 71 69
3 69 71 72
3 69 72 27
3 27 72 26
3 14 15 70
3 70 15 73
3 70 73 71
3 71 73 74
3 71 74 72
3 72 74 75
3 72 75 26
3 26 75 25
3 15 16 73
3 73 16 76
3 73 76 74
3 74 76 77
3 74 77 75
3 75 77 78
3 75 78 25
3 25 78 24
3 16 17 76
3 76 17 79
3 76 79 77
3 77 79 80
3 77 80 78
3 78 80 81
3 78 81 24
3 24 81 23
3 17 18 79
3 79 18 82
3 79 82 80
3 80 82 83
3 80 83 81
3 81 83 84
3 81 84 23
3 23 84 22
3 18 1 82
3 82 1 19
3 82 19 83
3 83 19 20
3 83 20 84
3 84 20 21
3 84 21 22
3 22 21 2
POINT_DATA 85
VECTORS U float
-0.000001 0.001501 0.000000
0.012004 0.068483 0.000000
-0.011990 0.068474 0.000000
0.000011 0.001499 0.000000
0.001448 0.002052 0.000000
0.002802 0.003308 0.000000
0.004067 0.005223 0.000000
0.005242 0.007745 0.000000
0.006320 0.010827 0.000000
0.007306 0.014429 0.000000
0.008199 0.018498 0.000000
0.008995 0.022987 0.000000
0.009700 0.027854 0.000000
0.010311 0.033049 0.000000
0.010827 0.038522 0.000000
0.011250 0.044233 0.000000
0.011579 0.050132 0.000000
0.011814 0.056166 0.000000
0.011955 0.062300 0.000000
0.005926 0.068479 0.000000
-0.000008 0.068477 0.000000
-0.005929 0.068475 0.000000
-0.011945 0.062299 0.000000
-0.011805 0.056168 0.000000
-0.011571 0.050130 0.000000
-0.011245 0.044233 0.000000
-0.010824 0.038525 0.000000
-0.010309 0.033048 0.000000
-0.009701 0.027854 0.000000
-0.008999 0.022990 0.000000
-0.008202 0.018497 0.000000
-0.007313 0.014429 0.000000
-0.006330 0.010830 0.000000
-0.005252 0.007744 0.000000
-0.004082 0.005221 0.000000
-0.002818 0.003312 0.000000
-0.001455 0.002053 0.000000
0.000067 0.000370 0.000000
0.000001 0.000003 0.000000
-0.000069 0.000373 0.000000
0.000655 0.001000 0.000000
0.000003 0.000648 0.000000
-0.000654 0.000997 0.000000
0.001334 0.002326 0.000000
0.000004 0.001998 0.000000
-0.001333 0.002326 0.000000
0.001966 0.004307 0.000000
0.000003 0.004004 0.000000
-0.001966 0.004309 0.000000
0.002552 0.006900 0.000000
0.000002 0.006619 0.000000
-0.002552 0.006900 0.000000
0.003091 0.010054 0.000000
0.000002 0.009797 0.000000
-0.003092 0.010056 0.000000
0.003583 0.013724 0.000000
-0.000000 0.013491 0.000000
-0.003584 0.013727 0.000000
0.004028 0.017865 0.000000
-0.000001 0.017654 0.000000
-0.004029 0.017865 0.000000
0.004427 0.022425 0.000000
-0.000002 0.022238 0.000000
-0.004429 0.022427 0.000000
0.004777 0.027361 0.000000
-0.000004 0.027198 0.000000
-0.004781 0.027363 0.000000
0.005082 0.032626 0.000000
-0.000004 0.032485 0.000000
-0.005085 0.032626 0.000000
0.005340 0.038171 0.000000
-0.000005 0.038055 0.000000
-0.005343 0.038173 0.000000
0.005550 0.043951 0.000000
-0.000007 0.043858 0.000000
-0.005555 0.043953 0.000000
0.005714 0.049920 0.000000
-0.000007 0.049849 0.000000
-0.005719 0.049919 0.000000
0.005832 0.056026 0.000000
-0.000007 0.055980 0.000000
-0.005836 0.056028 0.000000
0.005901 0.062229 0.000000
-0.000008 0.062206 0.000000
-0.005906 0.062230 0.000000
CELL_DATA 128
SCALARS P float 6
LOOKUP_TABLE default
45.086206 -14.810188 -157.645736 -1.010938 -1.010938 0.070998
17.217948 -17.190220 -166.098876 1.393471 1.393471 -0.983944
-14.281253 -4.545410 -150.057070 4.817172 4.817172 4.724016
19.825926 -3.884077 -164.275637 -0.272667 -0.272667 0.309923
39.031788 20.085980 -144.092585 -7.595919 -7.595919 -13.199843
-68.128898 4.847926 -158.139038 0.716743 0.716743 -0.696617
231.437057 -20.819172 -301.502880 10.157462 10.157462 17.155008
-12.279675 12.329911 -151.134372 0.760785 0.760785 -1.002572
122.202882 -17.019391 -154.350287 0.334448 0.334448 -0.503340
-292.135929 -14.291678 -158.128105 0.547497 0.547497 -0.377007
312.193610 -9.147807 -160.473631 0.339001 0.339001 -0.620920
-595.699007 -2.356766 -167.983328 -0.067677 -0.067677 -0.114260
229.549239 5.919023 -164.470655 0.030071 0.030071 0.224920
-275.939816 1.803587 -157.087750 0.507152 0.507152 -0.285201
-16.237475 7.752680 -149.973651 0.189932 0.189932 -1.064484
-86.881203 7.166707 -140.332141 0.329397 0.329397 -1.059017
408.676953 -27.142686 -144.218379 0.866792 0.866792 -0.765797
-784.984756 -12.423587 -148.822817 0.174450 0.174450 -0.220111
1473.039165 -7.538582 -150.006496 0.077638 0.077638 -0.075003
-1565.410164 -0.546374 -161.201862 -0.226662 -0.226662 0.306316
554.353184 7.973098 -160.169078 -0.105638 -0.105638 -0.022678
-162.178214 6.481423 -144.978618 0.116215 0.116215 -0.234906
-142.213069 4.637506 -146.452906 0.409439 0.409439 0.200948
15.261579 -0.863740 -122.421823 1.051547 1.051547 -0.638476
558.342232 -26.172333 -135.811182 0.651865 0.651865 -0.829357
-791.852672 -21.628194 -146.158365 0.580258 0.580258 -0.691236
1979.634226 -13.721702 -147.519603 0.382838 0.382838 -0.247912
-1499.135316 -0.996036 -161.539066 -0.159576 -0.159576 0.069549
260.766126 8.966195 -158.938026 -0.174273 -0.174273 0.193766
395.267280 -0.893144 -140.291595 0.378914 0.378914 -0.302327
-476.931723 0.844301 -134.526478 0.482188 0.482188 -0.855764
95.009502 3.430337 -119.102705 0.464118 0.464118 -0.742580
623.438393 -29.585283 -115.541117 0.568594 0.568594 -0.663191
-732.084570 -19.318799 -130.396990 0.336999 0.336999 -0.193915
1794.072872 -13.051087 -136.759718 0.242604 0.242604 -0.298395
-1314.424421 -4.626897 -157.867931 0.006086 0.006086 0.041518
-132.978002 5.953126 -157.226653 -0.006618 -0.006618 0.021177
547.139981 1.298839 -135.841518 0.217289 0.217289 -0.217432
-601.065167 2.527064 -132.836723 0.272824 0.272824 -0.130324
130.700632 -5.701297 -102.814475 0.689194 0.689194 -0.639937
732.399831 -29.200203 -110.205241 0.493570 0.493570 -0.623218
-891.793389 -21.624288 -129.748762 0.360615 0.360615 -0.542383
2156.713013 -13.791909 -131.951646 0.233520 0.233520 -0.208516
-1758.665487 3.937403 -156.334213 -0.252464 -0.252464 0.258261
-109.689712 11.236118 -156.639369 -0.187420 -0.187420 0.164329
652.328781 -3.580261 -126.386249 0.310781 0.310781 -0.263741
-612.603168 -5.608274 -120.931942 0.484525 0.484525 -0.527450
140.018746 -4.229009 -87.832074 0.564875 0.564875 -0.751732
1009.840065 -46.768501 -98.139634 0.885649 0.885649 -0.850180
-775.445366 -27.990753 -120.235191 0.474802 0.474802 -0.385981
2402.725650 -18.660321 -124.658299 0.304653 0.304653 -0.214427
-1404.319861 -4.059089 -152.092773 -0.035587 -0.035587 -0.036333
-393.266640 8.884207 -153.042262 -0.101908 -0.101908 0.108236
1103.982381 -1.641127 -120.644513 0.223122 0.223122 -0.219291
-829.873467 -3.725218 -112.657620 0.373040 0.373040 -0.422569
285.130139 -11.926778 -78.139178 0.661445 0.661445 -0.703951
847.802677 -28.822768 -80.354370 0.330467 0.330467 -0.609524
-515.253234 -27.324819 -107.599682 0.374507 0.374507 -0.451119
1957.695329 -22.375149 -114.234214 0.350122 0.350122 -0.384658
-874.298565 -2.774869 -150.676389 -0.044791 -0.044791 0.117931
-973.788708 9.132399 -154.572028 -0.096037 -0.096037 0.098204
1459.653431 -7.527959 -118.962118 0.305768 0.305768 -0.273047
-925.179107 -7.013373 -110.127470 0.377230 0.377230 -0.390412
321.741065 -13.450521 -68.383712 0.588907 0.588907 -0.696075
1144.159005 -50.646422 -72.159691 0.743804 0.743804 -0.679246
-520.742050 -26.961180 -105.814945 0.343137 0.343137 -0.321409
1827.618220 -15.795932 -108.824125 0.173638 0.173638 -0.159573
-1029.473275 3.817488 -146.831510 -0.181550 -0.181550 0.151505
-1089.529113 13.617498 -153.112633 -0.178091 -0.178091 0.152064
1384.824278 -4.218180 -108.652299 0.210399 0.210399 -0.171558
-870.244101 -10.960604 -99.235056 0.415576 0.415576 -0.402460
369.857609 -19.181323 -48.016688 0.659036 0.659036 -0.746974
1212.279015 -47.216863 -66.075632 0.616284 0.616284 -0.772370
-245.965590 -37.897999 -97.758542 0.491609 0.491609 -0.581599
2109.704390 -30.757243 -101.421757 0.415360 0.415360 -0.312574
-606.261300 -3.996878 -142.730808 -0.032701 -0.032701 -0.007542
-1259.599781 12.918732 -150.101067 -0.154443 -0.154443 0.176096
1757.468472 -6.719668 -102.991128 0.229096 0.229096 -0.232641
-967.083676 -10.411719 -88.444196 0.374518 0.374518 -0.449129
425.513403 -18.420458 -39.780288 0.575218 0.575218 -0.684785
1240.968710 -48.701342 -41.853236 0.557926 0.557926 -0.663653
114.672259 -34.121655 -82.935402 0.380813 0.380813 -0.310069
1379.113133 -26.634184 -90.556706 0.309008 0.309008 -0.366819
259.431429 -5.253425 -141.316425 -0.005787 -0.005787 0.054872
-1856.738623 9.519499 -154.435399 -0.084644 -0.084644 0.074121
2182.081905 -11.791672 -105.149119 0.278698 0.278698 -0.235391
-982.987401 -15.547648 -90.583653 0.399730 0.399730 -0.377129
654.941430 -30.965373 -30.948471 0.697536 0.697536 -0.761788
1267.557087 -51.047945 -36.214896 0.552081 0.552081 -0.616082
268.008891 -32.814458 -80.822921 0.331613 0.331613 -0.419232
907.069335 -23.289880 -80.706825 0.227415 0.227415 -0.180886
241.098195 6.137016 -133.514139 -0.178027 -0.178027 0.167008
-2193.703155 21.648151 -149.092572 -0.258762 -0.258762 0.229933
1911.718316 -6.062463 -90.476689 0.176248 0.176248 -0.143263
-894.701702 -16.055088 -73.944731 0.387363 0.387363 -0.427051
491.131473 -24.823287 -8.635236 0.577067 0.577067 -0.695709
1625.474815 -67.010799 -37.875278 0.747506 0.747506 -0.825277
736.833948 -49.402177 -78.962779 0.534260 0.534260 -0.555405
1239.906411 -41.504530 -82.923214 0.456510 0.456510 -0.380103
772.853207 -8.861286 -136.100569 0.031735 0.031735 -0.090514
-1974.843340 12.060446 -155.443674 -0.115739 -0.115739 0.149645
2086.088202 -10.868636 -92.430236 0.218933 0.218933 -0.219350
-769.689114 -18.780154 -71.982448 0.384845 0.384845 -0.411892
745.509271 -36.143116 -2.108599 0.667988 0.667988 -0.754868
1397.262491 -52.565558 6.183416 0.466189 0.466189 -0.575298
1057.693429 -36.619182 -47.329831 0.315200 0.315200 -0.256341
295.990296 -31.108343 -52.106268 0.281981 0.281981 -0.333427
1644.030364 -2.994314 -120.055267 -0.042441 -0.042441 0.106212
-2650.597778 19.478168 -144.101099 -0.196035 -0.196035 0.176471
2301.380992 -11.982609 -81.888970 0.219986 0.219986 -0.198286
-840.954659 -16.331772 -58.314018 0.334702 0.334702 -0.349784
806.196754 -39.146740 13.759599 0.661132 0.661132 -0.724910
1735.650164 -76.631596 -30.350721 0.776641 0.776641 -0.778693
1411.955364 -43.147974 -61.719671 0.388995 0.388995 -0.379600
-110.997021 -40.942885 -83.575890 0.395236 0.395236 -0.373605
1477.926692 0.005981 -128.846049 -0.076110 -0.076110 0.041459
-2312.219738 10.917288 -176.561850 -0.092924 -0.092924 0.067754
1498.643670 -11.560780 -82.011397 0.194071 0.194071 -0.180886
-131.560246 -34.104672 -78.096680 0.485751 0.485751 -0.522737
726.923528 -41.359719 29.401805 0.638307 0.638307 -0.792378
1342.948243 -46.601279 15.923719 0.354741 0.354741 -0.618750
819.963793 -20.863551 -4.300099 0.080163 0.080163 -0.183868
823.832541 -41.621444 -42.221411 0.357507 0.357507 -0.368879
-8.936286 14.588742 -80.965870 -0.237660 -0.237660 0.172341
-1222.983719 28.280257 -144.929063 -0.271825 -0.271825 0.236925
-216.697456 8.503265 -41.562738 -0.018591 -0.018591 0.041529
285.959830 -29.592129 -40.829233 0.436551 0.436551 -0.450931
492.867132 -40.134935 74.662018 0.631320 0.631320 -0.609446
