# vtk DataFile Version 2.0
cantilever_tri3_mix
ASCII
DATASET POLYDATA
POINTS 27 float
0.000000 -6.000000 0.000000
48.000000 -6.000000 0.000000
48.000000 6.000000 0.000000
0.000000 6.000000 0.000000
6.000000 -6.000000 0.000000
12.000000 -6.000000 0.000000
18.000000 -6.000000 0.000000
24.000000 -6.000000 0.000000
30.000000 -6.000000 0.000000
36.000000 -6.000000 0.000000
42.000000 -6.000000 0.000000
48.000000 -0.000000 0.000000
42.000000 6.000000 0.000000
36.000000 6.000000 0.000000
30.000000 6.000000 0.000000
24.000000 6.000000 0.000000
18.000000 6.000000 0.000000
12.000000 6.000000 0.000000
6.000000 6.000000 0.000000
0.000000 0.000000 0.000000
6.000000 0.000000 0.000000
12.000000 0.000000 0.000000
18.000000 0.000000 0.000000
24.000000 0.000000 0.000000
30.000000 -0.000000 0.000000
36.000000 -0.000000 0.000000
42.000000 -0.000000 0.000000
POLYGONS 32 128
3 0 4 19
3 19 4 20
3 19 20 3
3 3 20 18
3 4 5 20
3 20 5 21
3 20 21 18
3 18 21 17
3 5 6 21
3 21 6 22
3 21 22 17
3 17 22 16
3 6 7 22
3 22 7 23
3 22 23 16
3 16 23 15
3 7 8 23
3 23 8 24
3 23 24 15
3 15 24 14
3 8 9 24
3 24 9 25
3 24 25 14
3 14 25 13
3 9 10 25
3 25 10 26
3 25 26 13
3 13 26 12
3 10 1 26
3 26 1 11
3 26 11 12
3 12 11 2
POINT_DATA 27
VECTORS U float
0.000067 0.000799 0.000000
0.014480 0.080876 0.000000
-0.014490 0.080889 0.000000
0.000079 0.000779 0.000000
0.003340 0.002859 0.000000
0.006319 0.008083 0.000000
0.008814 0.016056 0.000000
0.010865 0.026292 0.000000
0.012457 0.038364 0.000000
0.013591 0.051777 0.000000
0.014282 0.066133 0.000000
0.000009 0.080930 0.000000
-0.014274 0.066129 0.000000
-0.013582 0.051779 0.000000
-0.012450 0.038360 0.000000
-0.010853 0.026296 0.000000
-0.008811 0.016050 0.000000
-0.006300 0.008093 0.000000
-0.003361 0.002845 0.000000
-0.000032 -0.000025 0.000000
0.000014 0.002170 0.000000
0.000002 0.007501 0.000000
0.000006 0.015566 0.000000
0.000004 0.025904 0.000000
0.000005 0.038068 0.000000
0.000004 0.051586 0.000000
0.000005 0.066027 0.000000
CELL_DATA 32
SCALARS P float 3
LOOKUP_TABLE default
18.263174 -11.961166 -159.645161
19.348883 -1.081543 -144.324573
-38.356446 7.510376 -157.434818
4.458866 0.177456 -153.769779
-7.244070 1.015301 -138.835341
-0.444741 -0.291688 -130.999698
-8.508213 0.961333 -142.173779
-3.658909 0.526189 -133.034401
24.727417 -1.619008 -116.237182
20.498245 -0.892514 -106.544337
-1.282464 0.446122 -121.149735
1.580042 0.258719 -113.235546
-0.663000 0.249216 -95.549089
9.466073 -0.373024 -87.793741
-12.788893 0.746437 -100.855773
-11.807746 0.653967 -91.976885
38.730467 -1.349872 -74.608266
30.248182 -0.912439 -65.025930
-12.241658 0.617155 -79.741295
-19.397734 0.814240 -70.817008
-7.416040 0.297205 -53.967199
12.033529 -0.296849 -46.438730
-13.143023 0.513994 -58.859907
7.893162 -0.097188 -50.984644
59.623877 -1.361094 -32.490223
37.439384 -0.801695 -22.793549
-36.954881 1.007388 -37.900384
-62.865541 1.566964 -28.483780
-97.677563 2.341330 -10.979722
4.387015 -0.000759 -4.627594
-15.162493 0.527711 -18.095592
32.109084 -0.606928 -9.677741
