# vtk DataFile Version 2.0
cantilever_tri3_mix
ASCII
DATASET POLYDATA
POINTS 85 float
0.000000 -6.000000 0.000000
48.000000 -6.000000 0.000000
48.000000 6.000000 0.000000
0.000000 6.000000 0.000000
3.000000 -6.000000 0.000000
6.000000 -6.000000 0.000000
9.000000 -6.000000 0.000000
12.000000 -6.000000 0.000000
15.000000 -6.000000 0.000000
18.000000 -6.000000 0.000000
21.000000 -6.000000 0.000000
24.000000 -6.000000 0.000000
27.000000 -6.000000 0.000000
30.000000 -6.000000 0.000000
33.000000 -6.000000 0.000000
36.000000 -6.000000 0.000000
39.000000 -6.000000 0.000000
42.000000 -6.000000 0.000000
45.000000 -6.000000 0.000000
48.000000 -3.000000 0.000000
48.000000 -0.000000 0.000000
48.000000 3.000000 0.000000
45.000000 6.000000 0.000000
42.000000 6.000000 0.000000
39.000000 6.000000 0.000000
36.000000 6.000000 0.000000
33.000000 6.000000 0.000000
30.000000 6.000000 0.000000
27.000000 6.000000 0.000000
24.000000 6.000000 0.000000
21.000000 6.000000 0.000000
18.000000 6.000000 0.000000
15.000000 6.000000 0.000000
12.000000 6.000000 0.000000
9.000000 6.000000 0.000000
6.000000 6.000000 0.000000
3.000000 6.000000 0.000000
0.000000 3.000000 0.000000
0.000000 0.000000 0.000000
0.000000 -3.000000 0.000000
3.000000 -3.000000 0.000000
3.000000 0.000000 0.000000
3.000000 3.000000 0.000000
6.000000 -3.000000 0.000000
6.000000 0.000000 0.000000
6.000000 3.000000 0.000000
9.000000 -3.000000 0.000000
9.000000 0.000000 0.000000
9.000000 3.000000 0.000000
12.000000 -3.000000 0.000000
12.000000 0.000000 0.000000
12.000000 3.000000 0.000000
15.000000 -3.000000 0.000000
15.000000 0.000000 0.000000
15.000000 3.000000 0.000000
18.000000 -3.000000 0.000000
18.000000 0.000000 0.000000
18.000000 3.000000 0.000000
21.000000 -3.000000 0.000000
21.000000 0.000000 0.000000
21.000000 3.000000 0.000000
24.000000 -3.000000 0.000000
24.000000 -0.000000 0.000000
24.000000 3.000000 0.000000
27.000000 -3.000000 0.000000
27.000000 -0.000000 0.000000
27.000000 3.000000 0.000000
30.000000 -3.000000 0.000000
30.000000 -0.000000 0.000000
30.000000 3.000000 0.000000
33.000000 -3.000000 0.000000
33.000000 -0.000000 0.000000
33.000000 3.000000 0.000000
36.000000 -3.000000 0.000000
36.000000 -0.000000 0.000000
36.000000 3.000000 0.000000
39.000000 -3.000000 0.000000
39.000000 -0.000000 0.000000
39.000000 3.000000 0.000000
42.000000 -3.000000 0.000000
42.000000 -0.000000 0.000000
42.000000 3.000000 0.000000
45.000000 -3.000000 0.000000
45.000000 -0.000000 0.000000
45.000000 3.000000 0.000000
POLYGONS 128 512
3 0 4 39
3 39 4 40
3 39 40 38
3 38 40 41
3 38 41 37
3 37 41 42
3 37 42 3
3 3 42 36
3 4 5 40
3 40 5 43
3 40 43 41
3 41 43 44
3 41 44 42
3 42 44 45
3 42 45 36
3 36 45 35
3 5 6 43
3 43 6 46
3 43 46 44
3 44 46 47
3 44 47 45
3 45 47 48
3 45 48 35
3 35 48 34
3 6 7 46
3 46 7 49
3 46 49 47
3 47 49 50
3 47 50 48
3 48 50 51
3 48 51 34
3 34 51 33
3 7 8 49
3 49 8 52
3 49 52 50
3 50 52 53
3 50 53 51
3 51 53 54
3 51 54 33
3 33 54 32
3 8 9 52
3 52 9 55
3 52 55 53
3 53 55 56
3 53 56 54
3 54 56 57
3 54 57 32
3 32 57 31
3 9 10 55
3 55 10 58
3 55 58 56
3 56 58 59
3 56 59 57
3 57 59 60
3 57 60 31
3 31 60 30
3 10 11 58
3 58 11 61
3 58 61 59
3 59 61 62
3 59 62 60
3 60 62 63
3 60 63 30
3 30 63 29
3 11 12 61
3 61 12 64
3 61 64 62
3 62 64 65
3 62 65 63
3 63 65 66
3 63 66 29
3 29 66 28
3 12 13 64
3 64 13 67
3 64 67 65
3 65 67 68
3 65 68 66
3 66 68 69
3 66 69 28
3 28 69 27
3 13 14 67
3 67 14 70
3 67 70 68
3 68 70 71
3 68 71 69
3 69 71 72
3 69 72 27
3 27 72 26
3 14 15 70
3 70 15 73
3 70 73 71
3 71 73 74
3 71 74 72
3 72 74 75
3 72 75 26
3 26 75 25
3 15 16 73
3 73 16 76
3 73 76 74
3 74 76 77
3 74 77 75
3 75 77 78
3 75 78 25
3 25 78 24
3 16 17 76
3 76 17 79
3 76 79 77
3 77 79 80
3 77 80 78
3 78 80 81
3 78 81 24
3 24 81 23
3 17 18 79
3 79 18 82
3 79 82 80
3 80 82 83
3 80 83 81
3 81 83 84
3 81 84 23
3 23 84 22
3 18 1 82
3 82 1 19
3 82 19 83
3 83 19 20
3 83 20 84
3 84 20 21
3 84 21 22
3 22 21 2
POINT_DATA 85
VECTORS U float
-0.000035 0.000801 0.000000
0.014585 0.081390 0.000000
-0.014545 0.081396 0.000000
0.000013 0.000789 0.000000
0.001776 0.001392 0.000000
0.003415 0.002920 0.000000
0.004959 0.005161 0.000000
0.006339 0.008209 0.000000
0.007706 0.011862 0.000000
0.008864 0.016252 0.000000
0.009940 0.021098 0.000000
0.010935 0.026521 0.000000
0.011755 0.032388 0.000000
0.012537 0.038633 0.000000
0.013108 0.045269 0.000000
0.013661 0.052092 0.000000
0.014059 0.059271 0.000000
0.014320 0.066521 0.000000
0.014508 0.073920 0.000000
0.007201 0.081397 0.000000
-0.000002 0.081367 0.000000
-0.007212 0.081378 0.000000
-0.014515 0.073924 0.000000
-0.014335 0.066519 0.000000
-0.014039 0.059250 0.000000
-0.013657 0.052120 0.000000
-0.013122 0.045262 0.000000
-0.012546 0.038631 0.000000
-0.011734 0.032371 0.000000
-0.010937 0.026554 0.000000
-0.009960 0.021080 0.000000
-0.008858 0.016246 0.000000
-0.007687 0.011865 0.000000
-0.006358 0.008229 0.000000
-0.004966 0.005142 0.000000
-0.003402 0.002914 0.000000
-0.001770 0.001407 0.000000
0.000054 0.000179 0.000000
-0.000001 0.000004 0.000000
-0.000048 0.000177 0.000000
0.000794 0.000875 0.000000
0.000002 0.000681 0.000000
-0.000800 0.000873 0.000000
0.001642 0.002374 0.000000
0.000003 0.002217 0.000000
-0.001651 0.002374 0.000000
0.002398 0.004709 0.000000
-0.000003 0.004537 0.000000
-0.002394 0.004711 0.000000
0.003131 0.007748 0.000000
-0.000004 0.007606 0.000000
-0.003123 0.007745 0.000000
0.003756 0.011492 0.000000
0.000004 0.011366 0.000000
-0.003767 0.011496 0.000000
0.004369 0.015858 0.000000
0.000001 0.015715 0.000000
-0.004373 0.015854 0.000000
0.004916 0.020777 0.000000
-0.000004 0.020696 0.000000
-0.004907 0.020782 0.000000
0.005380 0.026239 0.000000
-0.000001 0.026113 0.000000
-0.005379 0.026233 0.000000
0.005828 0.032118 0.000000
0.000004 0.032053 0.000000
-0.005840 0.032123 0.000000
0.006172 0.038429 0.000000
-0.000002 0.038348 0.000000
-0.006169 0.038425 0.000000
0.006516 0.045058 0.000000
-0.000004 0.044995 0.000000
-0.006509 0.045064 0.000000
0.006749 0.051985 0.000000
0.000001 0.051943 0.000000
-0.006754 0.051979 0.000000
0.006948 0.059130 0.000000
0.000003 0.059089 0.000000
-0.006959 0.059139 0.000000
0.007108 0.066455 0.000000
-0.000007 0.066430 0.000000
-0.007100 0.066449 0.000000
0.007182 0.073884 0.000000
-0.000002 0.073878 0.000000
-0.007181 0.073888 0.000000
CELL_DATA 128
SCALARS P float 1
LOOKUP_TABLE default
797.914385
614.747661
291.914811
139.766737
-146.040146
-285.375767
-617.900966
-790.778587
729.236650
568.821738
310.195216
157.051943
-159.848329
-311.154047
-597.429239
-684.122424
667.457348
528.508598
261.971676
117.850216
-132.971959
-243.734953
-528.633140
-693.590701
625.385390
485.874902
254.679676
128.744177
-127.120802
-258.519135
-517.346364
-589.983990
583.871936
453.766854
229.297213
111.268206
-117.024459
-221.086251
-450.722684
-571.676845
539.011813
403.916028
206.950798
97.341001
-102.888494
-203.981668
-435.422810
-505.535572
448.622446
371.640947
200.011855
99.657811
-103.617939
-193.021412
-374.109516
-474.919889
458.991327
332.277815
160.483117
69.724558
-79.392167
-152.941000
-354.634086
-416.802373
361.582107
284.456798
160.978409
88.230292
-82.816110
-165.426679
-298.103649
-336.465756
344.429224
257.774769
122.762552
45.247909
-61.693216
-105.877955
-266.887576
-352.953349
262.725943
202.039925
119.147590
65.215724
-61.912117
-123.027278
-229.521941
-241.881123
237.203991
180.221469
87.976611
33.687555
-44.387131
-76.324322
-179.663003
-222.360585
198.657446
125.058689
70.624348
38.075010
-35.935559
-72.897361
-153.117865
-162.151500
104.237865
95.424928
56.039928
18.358397
-30.652976
-45.296382
-100.566072
-121.563129
98.023140
52.289672
31.423326
14.248164
-17.343729
-27.510752
-72.549472
-72.436895
32.747724
3.058815
2.964324
-11.583887
-3.459529
-2.566497
-22.862142
6.004422
