# vtk DataFile Version 2.0
cantilever_tri3_mix
ASCII
DATASET POLYDATA
POINTS 297 float
0.000000 -6.000000 0.000000
48.000000 -6.000000 0.000000
48.000000 6.000000 0.000000
0.000000 6.000000 0.000000
1.500000 -6.000000 0.000000
3.000000 -6.000000 0.000000
4.500000 -6.000000 0.000000
6.000000 -6.000000 0.000000
7.500000 -6.000000 0.000000
9.000000 -6.000000 0.000000
10.500000 -6.000000 0.000000
12.000000 -6.000000 0.000000
13.500000 -6.000000 0.000000
15.000000 -6.000000 0.000000
16.500000 -6.000000 0.000000
18.000000 -6.000000 0.000000
19.500000 -6.000000 0.000000
21.000000 -6.000000 0.000000
22.500000 -6.000000 0.000000
24.000000 -6.000000 0.000000
25.500000 -6.000000 0.000000
27.000000 -6.000000 0.000000
28.500000 -6.000000 0.000000
30.000000 -6.000000 0.000000
31.500000 -6.000000 0.000000
33.000000 -6.000000 0.000000
34.500000 -6.000000 0.000000
36.000000 -6.000000 0.000000
37.500000 -6.000000 0.000000
39.000000 -6.000000 0.000000
40.500000 -6.000000 0.000000
42.000000 -6.000000 0.000000
43.500000 -6.000000 0.000000
45.000000 -6.000000 0.000000
46.500000 -6.000000 0.000000
48.000000 -4.500000 0.000000
48.000000 -3.000000 0.000000
48.000000 -1.500000 0.000000
48.000000 -0.000000 0.000000
48.000000 1.500000 0.000000
48.000000 3.000000 0.000000
48.000000 4.500000 0.000000
46.500000 6.000000 0.000000
45.000000 6.000000 0.000000
43.500000 6.000000 0.000000
42.000000 6.000000 0.000000
40.500000 6.000000 0.000000
39.000000 6.000000 0.000000
37.500000 6.000000 0.000000
36.000000 6.000000 0.000000
34.500000 6.000000 0.000000
33.000000 6.000000 0.000000
31.500000 6.000000 0.000000
30.000000 6.000000 0.000000
28.500000 6.000000 0.000000
27.000000 6.000000 0.000000
25.500000 6.000000 0.000000
24.000000 6.000000 0.000000
22.500000 6.000000 0.000000
21.000000 6.000000 0.000000
19.500000 6.000000 0.000000
18.000000 6.000000 0.000000
16.500000 6.000000 0.000000
15.000000 6.000000 0.000000
13.500000 6.000000 0.000000
12.000000 6.000000 0.000000
10.500000 6.000000 0.000000
9.000000 6.000000 0.000000
7.500000 6.000000 0.000000
6.000000 6.000000 0.000000
4.500000 6.000000 0.000000
3.000000 6.000000 0.000000
1.500000 6.000000 0.000000
0.000000 4.500000 0.000000
0.000000 3.000000 0.000000
0.000000 1.500000 0.000000
0.000000 0.000000 0.000000
0.000000 -1.500000 0.000000
0.000000 -3.000000 0.000000
0.000000 -4.500000 0.000000
1.500000 -4.500000 0.000000
1.500000 -3.000000 0.000000
1.500000 -1.500000 0.000000
1.500000 0.000000 0.000000
1.500000 1.500000 0.000000
1.500000 3.000000 0.000000
1.500000 4.500000 0.000000
3.000000 -4.500000 0.000000
3.000000 -3.000000 0.000000
3.000000 -1.500000 0.000000
3.000000 0.000000 0.000000
3.000000 1.500000 0.000000
3.000000 3.000000 0.000000
3.000000 4.500000 0.000000
4.500000 -4.500000 0.000000
4.500000 -3.000000 0.000000
4.500000 -1.500000 0.000000
4.500000 0.000000 0.000000
4.500000 1.500000 0.000000
4.500000 3.000000 0.000000
4.500000 4.500000 0.000000
6.000000 -4.500000 0.000000
6.000000 -3.000000 0.000000
6.000000 -1.500000 0.000000
6.000000 0.000000 0.000000
6.000000 1.500000 0.000000
6.000000 3.000000 0.000000
6.000000 4.500000 0.000000
7.500000 -4.500000 0.000000
7.500000 -3.000000 0.000000
7.500000 -1.500000 0.000000
7.500000 0.000000 0.000000
7.500000 1.500000 0.000000
7.500000 3.000000 0.000000
7.500000 4.500000 0.000000
9.000000 -4.500000 0.000000
9.000000 -3.000000 0.000000
9.000000 -1.500000 0.000000
9.000000 0.000000 0.000000
9.000000 1.500000 0.000000
9.000000 3.000000 0.000000
9.000000 4.500000 0.000000
10.500000 -4.500000 0.000000
10.500000 -3.000000 0.000000
10.500000 -1.500000 0.000000
10.500000 0.000000 0.000000
10.500000 1.500000 0.000000
10.500000 3.000000 0.000000
10.500000 4.500000 0.000000
12.000000 -4.500000 0.000000
12.000000 -3.000000 0.000000
12.000000 -1.500000 0.000000
12.000000 0.000000 0.000000
12.000000 1.500000 0.000000
12.000000 3.000000 0.000000
12.000000 4.500000 0.000000
13.500000 -4.500000 0.000000
13.500000 -3.000000 0.000000
13.500000 -1.500000 0.000000
13.500000 0.000000 0.000000
13.500000 1.500000 0.000000
13.500000 3.000000 0.000000
13.500000 4.500000 0.000000
15.000000 -4.500000 0.000000
15.000000 -3.000000 0.000000
15.000000 -1.500000 0.000000
15.000000 0.000000 0.000000
15.000000 1.500000 0.000000
15.000000 3.000000 0.000000
15.000000 4.500000 0.000000
16.500000 -4.500000 0.000000
16.500000 -3.000000 0.000000
16.500000 -1.500000 0.000000
16.500000 0.000000 0.000000
16.500000 1.500000 0.000000
16.500000 3.000000 0.000000
16.500000 4.500000 0.000000
18.000000 -4.500000 0.000000
18.000000 -3.000000 0.000000
18.000000 -1.500000 0.000000
18.000000 0.000000 0.000000
18.000000 1.500000 0.000000
18.000000 3.000000 0.000000
18.000000 4.500000 0.000000
19.500000 -4.500000 0.000000
19.500000 -3.000000 0.000000
19.500000 -1.500000 0.000000
19.500000 0.000000 0.000000
19.500000 1.500000 0.000000
19.500000 3.000000 0.000000
19.500000 4.500000 0.000000
21.000000 -4.500000 0.000000
21.000000 -3.000000 0.000000
21.000000 -1.500000 0.000000
21.000000 0.000000 0.000000
21.000000 1.500000 0.000000
21.000000 3.000000 0.000000
21.000000 4.500000 0.000000
22.500000 -4.500000 0.000000
22.500000 -3.000000 0.000000
22.500000 -1.500000 0.000000
22.500000 0.000000 0.000000
22.500000 1.500000 0.000000
22.500000 3.000000 0.000000
22.500000 4.500000 0.000000
24.000000 -4.500000 0.000000
24.000000 -3.000000 0.000000
24.000000 -1.500000 0.000000
24.000000 0.000000 0.000000
24.000000 1.500000 0.000000
24.000000 3.000000 0.000000
24.000000 4.500000 0.000000
25.500000 -4.500000 0.000000
25.500000 -3.000000 0.000000
25.500000 -1.500000 0.000000
25.500000 -0.000000 0.000000
25.500000 1.500000 0.000000
25.500000 3.000000 0.000000
25.500000 4.500000 0.000000
27.000000 -4.500000 0.000000
27.000000 -3.000000 0.000000
27.000000 -1.500000 0.000000
27.000000 -0.000000 0.000000
27.000000 1.500000 0.000000
27.000000 3.000000 0.000000
27.000000 4.500000 0.000000
28.500000 -4.500000 0.000000
28.500000 -3.000000 0.000000
28.500000 -1.500000 0.000000
28.500000 -0.000000 0.000000
28.500000 1.500000 0.000000
28.500000 3.000000 0.000000
28.500000 4.500000 0.000000
30.000000 -4.500000 0.000000
30.000000 -3.000000 0.000000
30.000000 -1.500000 0.000000
30.000000 -0.000000 0.000000
30.000000 1.500000 0.000000
30.000000 3.000000 0.000000
30.000000 4.500000 0.000000
31.500000 -4.500000 0.000000
31.500000 -3.000000 0.000000
31.500000 -1.500000 0.000000
31.500000 -0.000000 0.000000
31.500000 1.500000 0.000000
31.500000 3.000000 0.000000
31.500000 4.500000 0.000000
33.000000 -4.500000 0.000000
33.000000 -3.000000 0.000000
33.000000 -1.500000 0.000000
33.000000 -0.000000 0.000000
33.000000 1.500000 0.000000
33.000000 3.000000 0.000000
33.000000 4.500000 0.000000
34.500000 -4.500000 0.000000
34.500000 -3.000000 0.000000
34.500000 -1.500000 0.000000
34.500000 -0.000000 0.000000
34.500000 1.500000 0.000000
34.500000 3.000000 0.000000
34.500000 4.500000 0.000000
36.000000 -4.500000 0.000000
36.000000 -3.000000 0.000000
36.000000 -1.500000 0.000000
36.000000 -0.000000 0.000000
36.000000 1.500000 0.000000
36.000000 3.000000 0.000000
36.000000 4.500000 0.000000
37.500000 -4.500000 0.000000
37.500000 -3.000000 0.000000
37.500000 -1.500000 0.000000
37.500000 -0.000000 0.000000
37.500000 1.500000 0.000000
37.500000 3.000000 0.000000
37.500000 4.500000 0.000000
39.000000 -4.500000 0.000000
39.000000 -3.000000 0.000000
39.000000 -1.500000 0.000000
39.000000 -0.000000 0.000000
39.000000 1.500000 0.000000
39.000000 3.000000 0.000000
39.000000 4.500000 0.000000
40.500000 -4.500000 0.000000
40.500000 -3.000000 0.000000
40.500000 -1.500000 0.000000
40.500000 -0.000000 0.000000
40.500000 1.500000 0.000000
40.500000 3.000000 0.000000
40.500000 4.500000 0.000000
42.000000 -4.500000 0.000000
42.000000 -3.000000 0.000000
42.000000 -1.500000 0.000000
42.000000 -0.000000 0.000000
42.000000 1.500000 0.000000
42.000000 3.000000 0.000000
42.000000 4.500000 0.000000
43.500000 -4.500000 0.000000
43.500000 -3.000000 0.000000
43.500000 -1.500000 0.000000
43.500000 -0.000000 0.000000
43.500000 1.500000 0.000000
43.500000 3.000000 0.000000
43.500000 4.500000 0.000000
45.000000 -4.500000 0.000000
45.000000 -3.000000 0.000000
45.000000 -1.500000 0.000000
45.000000 -0.000000 0.000000
45.000000 1.500000 0.000000
45.000000 3.000000 0.000000
45.000000 4.500000 0.000000
46.500000 -4.500000 0.000000
46.500000 -3.000000 0.000000
46.500000 -1.500000 0.000000
46.500000 -0.000000 0.000000
46.500000 1.500000 0.000000
46.500000 3.000000 0.000000
46.500000 4.500000 0.000000
POLYGONS 512 2048
3 0 4 79
3 79 4 80
3 79 80 78
3 78 80 81
3 78 81 77
3 77 81 82
3 77 82 76
3 76 82 83
3 76 83 75
3 75 83 84
3 75 84 74
3 74 84 85
3 74 85 73
3 73 85 86
3 73 86 3
3 3 86 72
3 4 5 80
3 80 5 87
3 80 87 81
3 81 87 88
3 81 88 82
3 82 88 89
3 82 89 83
3 83 89 90
3 83 90 84
3 84 90 91
3 84 91 85
3 85 91 92
3 85 92 86
3 86 92 93
3 86 93 72
3 72 93 71
3 5 6 87
3 87 6 94
3 87 94 88
3 88 94 95
3 88 95 89
3 89 95 96
3 89 96 90
3 90 96 97
3 90 97 91
3 91 97 98
3 91 98 92
3 92 98 99
3 92 99 93
3 93 99 100
3 93 100 71
3 71 100 70
3 6 7 94
3 94 7 101
3 94 101 95
3 95 101 102
3 95 102 96
3 96 102 103
3 96 103 97
3 97 103 104
3 97 104 98
3 98 104 105
3 98 105 99
3 99 105 106
3 99 106 100
3 100 106 107
3 100 107 70
3 70 107 69
3 7 8 101
3 101 8 108
3 101 108 102
3 102 108 109
3 102 109 103
3 103 109 110
3 103 110 104
3 104 110 111
3 104 111 105
3 105 111 112
3 105 112 106
3 106 112 113
3 106 113 107
3 107 113 114
3 107 114 69
3 69 114 68
3 8 9 108
3 108 9 115
3 108 115 109
3 109 115 116
3 109 116 110
3 110 116 117
3 110 117 111
3 111 117 118
3 111 118 112
3 112 118 119
3 112 119 113
3 113 119 120
3 113 120 114
3 114 120 121
3 114 121 68
3 68 121 67
3 9 10 115
3 115 10 122
3 115 122 116
3 116 122 123
3 116 123 117
3 117 123 124
3 117 124 118
3 118 124 125
3 118 125 119
3 119 125 126
3 119 126 120
3 120 126 127
3 120 127 121
3 121 127 128
3 121 128 67
3 67 128 66
3 10 11 122
3 122 11 129
3 122 129 123
3 123 129 130
3 123 130 124
3 124 130 131
3 124 131 125
3 125 131 132
3 125 132 126
3 126 132 133
3 126 133 127
3 127 133 134
3 127 134 128
3 128 134 135
3 128 135 66
3 66 135 65
3 11 12 129
3 129 12 136
3 129 136 130
3 130 136 137
3 130 137 131
3 131 137 138
3 131 138 132
3 132 138 139
3 132 139 133
3 133 139 140
3 133 140 134
3 134 140 141
3 134 141 135
3 135 141 142
3 135 142 65
3 65 142 64
3 12 13 136
3 136 13 143
3 136 143 137
3 137 143 144
3 137 144 138
3 138 144 145
3 138 145 139
3 139 145 146
3 139 146 140
3 140 146 147
3 140 147 141
3 141 147 148
3 141 148 142
3 142 148 149
3 142 149 64
3 64 149 63
3 13 14 143
3 143 14 150
3 143 150 144
3 144 150 151
3 144 151 145
3 145 151 152
3 145 152 146
3 146 152 153
3 146 153 147
3 147 153 154
3 147 154 148
3 148 154 155
3 148 155 149
3 149 155 156
3 149 156 63
3 63 156 62
3 14 15 150
3 150 15 157
3 150 157 151
3 151 157 158
3 151 158 152
3 152 158 159
3 152 159 153
3 153 159 160
3 153 160 154
3 154 160 161
3 154 161 155
3 155 161 162
3 155 162 156
3 156 162 163
3 156 163 62
3 62 163 61
3 15 16 157
3 157 16 164
3 157 164 158
3 158 164 165
3 158 165 159
3 159 165 166
3 159 166 160
3 160 166 167
3 160 167 161
3 161 167 168
3 161 168 162
3 162 168 169
3 162 169 163
3 163 169 170
3 163 170 61
3 61 170 60
3 16 17 164
3 164 17 171
3 164 171 165
3 165 171 172
3 165 172 166
3 166 172 173
3 166 173 167
3 167 173 174
3 167 174 168
3 168 174 175
3 168 175 169
3 169 175 176
3 169 176 170
3 170 176 177
3 170 177 60
3 60 177 59
3 17 18 171
3 171 18 178
3 171 178 172
3 172 178 179
3 172 179 173
3 173 179 180
3 173 180 174
3 174 180 181
3 174 181 175
3 175 181 182
3 175 182 176
3 176 182 183
3 176 183 177
3 177 183 184
3 177 184 59
3 59 184 58
3 18 19 178
3 178 19 185
3 178 185 179
3 179 185 186
3 179 186 180
3 180 186 187
3 180 187 181
3 181 187 188
3 181 188 182
3 182 188 189
3 182 189 183
3 183 189 190
3 183 190 184
3 184 190 191
3 184 191 58
3 58 191 57
3 19 20 185
3 185 20 192
3 185 192 186
3 186 192 193
3 186 193 187
3 187 193 194
3 187 194 188
3 188 194 195
3 188 195 189
3 189 195 196
3 189 196 190
3 190 196 197
3 190 197 191
3 191 197 198
3 191 198 57
3 57 198 56
3 20 21 192
3 192 21 199
3 192 199 193
3 193 199 200
3 193 200 194
3 194 200 201
3 194 201 195
3 195 201 202
3 195 202 196
3 196 202 203
3 196 203 197
3 197 203 204
3 197 204 198
3 198 204 205
3 198 205 56
3 56 205 55
3 21 22 199
3 199 22 206
3 199 206 200
3 200 206 207
3 200 207 201
3 201 207 208
3 201 208 202
3 202 208 209
3 202 209 203
3 203 209 210
3 203 210 204
3 204 210 211
3 204 211 205
3 205 211 212
3 205 212 55
3 55 212 54
3 22 23 206
3 206 23 213
3 206 213 207
3 207 213 214
3 207 214 208
3 208 214 215
3 208 215 209
3 209 215 216
3 209 216 210
3 210 216 217
3 210 217 211
3 211 217 218
3 211 218 212
3 212 218 219
3 212 219 54
3 54 219 53
3 23 24 213
3 213 24 220
3 213 220 214
3 214 220 221
3 214 221 215
3 215 221 222
3 215 222 216
3 216 222 223
3 216 223 217
3 217 223 224
3 217 224 218
3 218 224 225
3 218 225 219
3 219 225 226
3 219 226 53
3 53 226 52
3 24 25 220
3 220 25 227
3 220 227 221
3 221 227 228
3 221 228 222
3 222 228 229
3 222 229 223
3 223 229 230
3 223 230 224
3 224 230 231
3 224 231 225
3 225 231 232
3 225 232 226
3 226 232 233
3 226 233 52
3 52 233 51
3 25 26 227
3 227 26 234
3 227 234 228
3 228 234 235
3 228 235 229
3 229 235 236
3 229 236 230
3 230 236 237
3 230 237 231
3 231 237 238
3 231 238 232
3 232 238 239
3 232 239 233
3 233 239 240
3 233 240 51
3 51 240 50
3 26 27 234
3 234 27 241
3 234 241 235
3 235 241 242
3 235 242 236
3 236 242 243
3 236 243 237
3 237 243 244
3 237 244 238
3 238 244 245
3 238 245 239
3 239 245 246
3 239 246 240
3 240 246 247
3 240 247 50
3 50 247 49
3 27 28 241
3 241 28 248
3 241 248 242
3 242 248 249
3 242 249 243
3 243 249 250
3 243 250 244
3 244 250 251
3 244 251 245
3 245 251 252
3 245 252 246
3 246 252 253
3 246 253 247
3 247 253 254
3 247 254 49
3 49 254 48
3 28 29 248
3 248 29 255
3 248 255 249
3 249 255 256
3 249 256 250
3 250 256 257
3 250 257 251
3 251 257 258
3 251 258 252
3 252 258 259
3 252 259 253
3 253 259 260
3 253 260 254
3 254 260 261
3 254 261 48
3 48 261 47
3 29 30 255
3 255 30 262
3 255 262 256
3 256 262 263
3 256 263 257
3 257 263 264
3 257 264 258
3 258 264 265
3 258 265 259
3 259 265 266
3 259 266 260
3 260 266 267
3 260 267 261
3 261 267 268
3 261 268 47
3 47 268 46
3 30 31 262
3 262 31 269
3 262 269 263
3 263 269 270
3 263 270 264
3 264 270 271
3 264 271 265
3 265 271 272
3 265 272 266
3 266 272 273
3 266 273 267
3 267 273 274
3 267 274 268
3 268 274 275
3 268 275 46
3 46 275 45
3 31 32 269
3 269 32 276
3 269 276 270
3 270 276 277
3 270 277 271
3 271 277 278
3 271 278 272
3 272 278 279
3 272 279 273
3 273 279 280
3 273 280 274
3 274 280 281
3 274 281 275
3 275 281 282
3 275 282 45
3 45 282 44
3 32 33 276
3 276 33 283
3 276 283 277
3 277 283 284
3 277 284 278
3 278 284 285
3 278 285 279
3 279 285 286
3 279 286 280
3 280 286 287
3 280 287 281
3 281 287 288
3 281 288 282
3 282 288 289
3 282 289 44
3 44 289 43
3 33 34 283
3 283 34 290
3 283 290 284
3 284 290 291
3 284 291 285
3 285 291 292
3 285 292 286
3 286 292 293
3 286 293 287
3 287 293 294
3 287 294 288
3 288 294 295
3 288 295 289
3 289 295 296
3 289 296 43
3 43 296 42
3 34 1 290
3 290 1 35
3 290 35 291
3 291 35 36
3 291 36 292
3 292 36 37
3 292 37 293
3 293 37 38
3 293 38 294
3 294 38 39
3 294 39 295
3 295 39 40
3 295 40 296
3 296 40 41
3 296 41 42
3 42 41 2
POINT_DATA 297
VECTORS U float
0.000010 0.000785 0.000000
0.014631 0.081425 0.000000
-0.014629 0.081426 0.000000
-0.000005 0.000786 0.000000
0.000883 0.000986 0.000000
0.001745 0.001406 0.000000
0.002603 0.002033 0.000000
0.003415 0.002880 0.000000
0.004208 0.003931 0.000000
0.004969 0.005174 0.000000
0.005665 0.006600 0.000000
0.006362 0.008197 0.000000
0.007022 0.009952 0.000000
0.007667 0.011882 0.000000
0.008295 0.013965 0.000000
0.008875 0.016203 0.000000
0.009446 0.018597 0.000000
0.009962 0.021113 0.000000
0.010438 0.023763 0.000000
0.010915 0.026519 0.000000
0.011349 0.029390 0.000000
0.011771 0.032373 0.000000
0.012168 0.035456 0.000000
0.012519 0.038637 0.000000
0.012850 0.041908 0.000000
0.013130 0.045243 0.000000
0.013394 0.048653 0.000000
0.013648 0.052123 0.000000
0.013859 0.055647 0.000000
0.014049 0.059238 0.000000
0.014225 0.062854 0.000000
0.014332 0.066531 0.000000
0.014440 0.070218 0.000000
0.014481 0.073934 0.000000
0.014553 0.077618 0.000000
0.010840 0.081393 0.000000
0.007196 0.081394 0.000000
0.003592 0.081348 0.000000
-0.000001 0.081381 0.000000
-0.003595 0.081343 0.000000
-0.007191 0.081387 0.000000
-0.010841 0.081392 0.000000
-0.014552 0.077617 0.000000
-0.014480 0.073924 0.000000
-0.014425 0.070228 0.000000
-0.014339 0.066533 0.000000
-0.014224 0.062866 0.000000
-0.014065 0.059233 0.000000
-0.013859 0.055644 0.000000
-0.013650 0.052113 0.000000
-0.013385 0.048649 0.000000
-0.013124 0.045244 0.000000
-0.012845 0.041913 0.000000
-0.012517 0.038646 0.000000
-0.012174 0.035459 0.000000
-0.011776 0.032376 0.000000
-0.011356 0.029382 0.000000
-0.010914 0.026513 0.000000
-0.010430 0.023756 0.000000
-0.009954 0.021117 0.000000
-0.009441 0.018602 0.000000
-0.008879 0.016213 0.000000
-0.008303 0.013968 0.000000
-0.007674 0.011880 0.000000
-0.007026 0.009946 0.000000
-0.006358 0.008188 0.000000
-0.005663 0.006599 0.000000
-0.004956 0.005172 0.000000
-0.004209 0.003941 0.000000
-0.003410 0.002882 0.000000
-0.002615 0.002042 0.000000
-0.001746 0.001397 0.000000
-0.000883 0.000982 0.000000
0.000061 0.000439 0.000000
0.000073 0.000175 0.000000
0.000046 0.000063 0.000000
0.000002 -0.000016 0.000000
-0.000042 0.000067 0.000000
-0.000070 0.000178 0.000000
-0.000060 0.000442 0.000000
0.000615 0.000656 0.000000
0.000369 0.000410 0.000000
0.000181 0.000291 0.000000
-0.000005 0.000220 0.000000
-0.000190 0.000292 0.000000
-0.000376 0.000413 0.000000
-0.000619 0.000656 0.000000
0.001261 0.001086 0.000000
0.000799 0.000861 0.000000
0.000396 0.000735 0.000000
-0.000013 0.000685 0.000000
-0.000417 0.000729 0.000000
-0.000812 0.000851 0.000000
-0.001267 0.001075 0.000000
0.001894 0.001730 0.000000
0.001227 0.001513 0.000000
0.000601 0.001381 0.000000
-0.000009 0.001352 0.000000
-0.000618 0.001386 0.000000
-0.001240 0.001522 0.000000
-0.001908 0.001738 0.000000
0.002503 0.002589 0.000000
0.001656 0.002377 0.000000
0.000808 0.002246 0.000000
-0.000005 0.002213 0.000000
-0.000817 0.002249 0.000000
-0.001655 0.002387 0.000000
-0.002500 0.002592 0.000000
0.003090 0.003633 0.000000
0.002054 0.003427 0.000000
0.001006 0.003317 0.000000
0.000003 0.003274 0.000000
-0.001005 0.003323 0.000000
-0.002044 0.003445 0.000000
-0.003084 0.003645 0.000000
0.003659 0.004889 0.000000
0.002425 0.004678 0.000000
0.001197 0.004573 0.000000
0.000009 0.004515 0.000000
-0.001188 0.004578 0.000000
-0.002404 0.004691 0.000000
-0.003636 0.004894 0.000000
0.004196 0.006320 0.000000
0.002774 0.006114 0.000000
0.001380 0.006019 0.000000
0.000008 0.005964 0.000000
-0.001373 0.006025 0.000000
-0.002761 0.006120 0.000000
-0.004179 0.006325 0.000000
0.004721 0.007927 0.000000
0.003102 0.007738 0.000000
0.001545 0.007641 0.000000
0.000003 0.007594 0.000000
-0.001540 0.007647 0.000000
-0.003096 0.007740 0.000000
-0.004708 0.007928 0.000000
0.005210 0.009710 0.000000
0.003426 0.009538 0.000000
0.001714 0.009427 0.000000
-0.000006 0.009390 0.000000
-0.001718 0.009431 0.000000
-0.003438 0.009539 0.000000
-0.005213 0.009711 0.000000
0.005688 0.011649 0.000000
0.003753 0.011485 0.000000
0.001875 0.011385 0.000000
-0.000009 0.011372 0.000000
-0.001880 0.011391 0.000000
-0.003771 0.011494 0.000000
-0.005695 0.011653 0.000000
0.006156 0.013751 0.000000
0.004073 0.013593 0.000000
0.002019 0.013495 0.000000
-0.000008 0.013479 0.000000
-0.002026 0.013498 0.000000
-0.004091 0.013604 0.000000
-0.006160 0.013756 0.000000
0.006596 0.015995 0.000000
0.004385 0.015844 0.000000
0.002177 0.015757 0.000000
-0.000000 0.015728 0.000000
-0.002174 0.015763 0.000000
-0.004392 0.015857 0.000000
-0.006591 0.016004 0.000000
0.007024 0.018386 0.000000
0.004665 0.018235 0.000000
0.002319 0.018166 0.000000
0.000005 0.018128 0.000000
-0.002309 0.018171 0.000000
-0.004658 0.018241 0.000000
-0.007009 0.018390 0.000000
0.007425 0.020920 0.000000
0.004923 0.020769 0.000000
0.002454 0.020699 0.000000
0.000009 0.020654 0.000000
-0.002438 0.020701 0.000000
-0.004907 0.020770 0.000000
-0.007408 0.020923 0.000000
0.007796 0.023573 0.000000
0.005162 0.023437 0.000000
0.002578 0.023366 0.000000
0.000007 0.023330 0.000000
-0.002567 0.023365 0.000000
-0.005149 0.023431 0.000000
-0.007784 0.023567 0.000000
0.008144 0.026346 0.000000
0.005380 0.026232 0.000000
0.002686 0.026146 0.000000
0.000002 0.026126 0.000000
-0.002686 0.026144 0.000000
-0.005377 0.026224 0.000000
-0.008143 0.026341 0.000000
0.008458 0.029239 0.000000
0.005602 0.029137 0.000000
0.002796 0.029036 0.000000
-0.000005 0.029036 0.000000
-0.002807 0.029036 0.000000
-0.005610 0.029129 0.000000
-0.008471 0.029234 0.000000
0.008759 0.032227 0.000000
0.005817 0.032133 0.000000
0.002890 0.032044 0.000000
-0.000010 0.032058 0.000000
-0.002906 0.032048 0.000000
-0.005831 0.032134 0.000000
-0.008779 0.032229 0.000000
0.009043 0.035323 0.000000
0.006018 0.035232 0.000000
0.002983 0.035149 0.000000
-0.000007 0.035147 0.000000
-0.002995 0.035154 0.000000
-0.006028 0.035240 0.000000
-0.009064 0.035326 0.000000
0.009304 0.038505 0.000000
0.006202 0.038412 0.000000
0.003083 0.038354 0.000000
-0.000002 0.038339 0.000000
-0.003090 0.038361 0.000000
-0.006200 0.038429 0.000000
-0.009313 0.038516 0.000000
0.009560 0.041780 0.000000
0.006358 0.041683 0.000000
0.003165 0.041645 0.000000
0.000008 0.041626 0.000000
-0.003160 0.041651 0.000000
-0.006344 0.041697 0.000000
-0.009558 0.041787 0.000000
0.009789 0.045134 0.000000
0.006499 0.045047 0.000000
0.003242 0.045003 0.000000
0.000009 0.044983 0.000000
-0.003234 0.045011 0.000000
-0.006481 0.045059 0.000000
-0.009782 0.045142 0.000000
0.009992 0.048551 0.000000
0.006629 0.048488 0.000000
0.003316 0.048442 0.000000
0.000008 0.048436 0.000000
-0.003306 0.048446 0.000000
-0.006613 0.048490 0.000000
-0.009986 0.048554 0.000000
0.010171 0.052041 0.000000
0.006742 0.051989 0.000000
0.003370 0.051932 0.000000
-0.000001 0.051945 0.000000
-0.003369 0.051938 0.000000
-0.006744 0.051993 0.000000
-0.010181 0.052042 0.000000
0.010329 0.055586 0.000000
0.006865 0.055542 0.000000
0.003426 0.055483 0.000000
-0.000006 0.055505 0.000000
-0.003429 0.055486 0.000000
-0.006876 0.055547 0.000000
-0.010341 0.055588 0.000000
0.010464 0.059172 0.000000
0.006963 0.059137 0.000000
0.003465 0.059090 0.000000
-0.000009 0.059110 0.000000
-0.003473 0.059095 0.000000
-0.006986 0.059145 0.000000
-0.010488 0.059174 0.000000
0.010589 0.062805 0.000000
0.007048 0.062773 0.000000
0.003510 0.062732 0.000000
-0.000006 0.062734 0.000000
-0.003513 0.062739 0.000000
-0.007061 0.062788 0.000000
-0.010597 0.062817 0.000000
0.010674 0.066482 0.000000
0.007107 0.066446 0.000000
0.003553 0.066419 0.000000
0.000002 0.066416 0.000000
-0.003545 0.066422 0.000000
-0.007113 0.066452 0.000000
-0.010685 0.066484 0.000000
0.010763 0.070181 0.000000
0.007149 0.070154 0.000000
0.003573 0.070133 0.000000
0.000006 0.070133 0.000000
-0.003558 0.070137 0.000000
-0.007136 0.070166 0.000000
-0.010752 0.070190 0.000000
0.010799 0.073913 0.000000
0.007172 0.073900 0.000000
0.003595 0.073857 0.000000
0.000013 0.073857 0.000000
-0.003574 0.073850 0.000000
-0.007157 0.073890 0.000000
-0.010794 0.073900 0.000000
0.010832 0.077596 0.000000
0.007191 0.077596 0.000000
0.003601 0.077555 0.000000
0.000006 0.077580 0.000000
-0.003592 0.077559 0.000000
-0.007177 0.077601 0.000000
-0.010826 0.077599 0.000000
CELL_DATA 512
SCALARS P float 1
LOOKUP_TABLE default
867.044371
769.478643
589.928474
516.175761
439.933295
350.079233
98.422109
18.803156
-30.658150
-123.417092
-368.844796
-444.873998
-523.437602
-608.686595
-792.108192
-851.731151
825.724200
743.168731
587.323845
523.799110
410.631857
322.594848
113.643481
45.838938
-63.594751
-154.983864
-355.014995
-418.313604
-531.170534
-600.683701
-755.288863
-824.164328
833.204506
748.100016
602.832625
533.891816
387.180571
299.691884
147.653676
90.894002
-72.386832
-146.430559
-305.623817
-372.501508
-543.244130
-610.430770
-769.317591
-843.822074
796.660506
714.689395
593.184565
525.959792
383.173424
296.510956
173.653660
97.942453
-81.234030
-149.437788
-275.687272
-344.683762
-510.695257
-562.024711
-695.180352
-754.889469
767.432975
676.798860
557.054083
482.589105
357.321589
290.305364
158.353516
84.292323
-57.277866
-114.876734
-252.580935
-327.106220
-492.690609
-549.567252
-697.344715
-755.743788
726.355743
645.516157
520.371153
435.519569
350.604064
283.319451
126.664912
49.062846
-33.405036
-88.157641
-249.736974
-314.659357
-439.274292
-490.624289
-632.996331
-693.430458
647.995434
582.535195
460.686047
391.759274
334.427080
276.994526
97.508322
28.862699
-24.336393
-87.747264
-272.539480
-338.158931
-422.856712
-475.994418
-619.488411
-667.034950
652.054114
584.358525
449.635515
383.370036
306.720069
244.424829
78.098823
23.351147
-23.098879
-81.937063
-258.199638
-316.493903
-396.789652
-464.584798
-606.186016
-662.881204
611.409023
555.108694
439.952166
389.626499
293.423854
231.005125
97.409671
41.842086
-50.462471
-118.094607
-267.475896
-316.140581
-417.301547
-475.214466
-593.426439
-650.162443
620.374643
558.510242
454.882703
405.889319
281.260156
224.370292
121.263602
76.233784
-63.879723
-128.986572
-231.005277
-288.534060
-419.301415
-470.676213
-581.525490
-634.130960
623.899641
561.322786
458.539214
402.077211
275.994679
210.618545
132.939545
80.975976
-73.630068
-122.284663
-206.526699
-264.338659
-414.908766
-459.493114
-572.116411
-623.399607
577.705311
516.841928
432.923226
382.435606
286.350741
233.368989
142.678653
79.159238
-55.539734
-100.832990
-202.108852
-255.948394
-381.558453
-413.415888
-518.498528
-554.272130
565.236873
496.613769
404.252727
338.232376
267.401685
219.384875
102.001536
43.500075
-25.807909
-68.036518
-191.583480
-242.761488
-334.676233
-373.183494
-494.671133
-530.074361
499.852611
448.372232
355.869451
293.913459
257.934733
207.047367
76.697971
23.737302
-8.363432
-52.910975
-200.447798
-237.109839
-295.383606
-333.827390
-450.885618
-482.631985
453.430001
404.936412
319.465304
271.213353
228.712069
178.868061
58.587913
16.564342
-17.748125
-71.951851
-200.365601
-232.615351
-276.531607
-322.748908
-423.049261
-448.325045
446.756831
396.091576
312.421858
267.317606
180.675960
127.007962
56.504407
28.713920
-40.203706
-89.434900
-171.653212
-195.547651
-279.325381
-331.414283
-422.086490
-461.572764
405.211929
362.978132
310.131261
275.674545
157.289533
106.258546
91.358545
62.640355
-75.010023
-125.438205
-154.517697
-178.990788
-294.694519
-328.904927
-392.303605
-427.492768
408.630769
359.755362
314.239001
276.469415
129.087667
87.672644
106.834520
82.367389
-89.294650
-122.465681
-111.689520
-146.500385
-286.672670
-316.248151
-381.175884
-407.344983
386.702949
340.205275
299.084297
254.914622
128.983451
93.029156
116.980512
79.475441
-74.040298
-91.322416
-87.768265
-118.439826
-261.687471
-288.238753
-352.550600
-380.120405
337.815030
296.995966
261.133178
218.704469
140.395933
123.011373
102.059275
60.268593
-45.260033
-65.635918
-90.349044
-116.448322
-220.641534
-235.781551
-294.246682
-308.334959
321.400327
283.259476
226.994715
176.082219
139.137626
121.202343
67.576736
37.214644
-2.403632
-23.549264
-76.034896
-106.393681
-177.592831
-206.700798
-282.104829
-299.795373
264.704866
242.037276
187.141773
151.032748
137.289271
111.568361
49.421550
20.771652
-4.080845
-29.070213
-99.412472
-116.377385
-156.661958
-185.989103
-247.328293
-262.587769
250.558641
223.417045
178.508822
154.415600
115.829810
92.475883
53.935459
31.987056
-11.726520
-49.613691
-93.674768
-112.993959
-156.441896
-191.703447
-240.857625
-255.647595
240.571818
211.483624
175.974256
147.369111
72.777343
43.702219
54.842109
42.603900
-47.113300
-76.903734
-78.944254
-94.091444
-178.820891
-211.123078
-253.678484
-279.880346
214.810740
194.804600
181.364499
161.010537
70.663421
43.194891
88.510651
69.017910
-72.897686
-98.633084
-62.499762
-78.206784
-181.651514
-192.052629
-215.612019
-225.174272
193.616726
161.941130
154.423301
128.439503
36.486411
19.878163
80.919872
64.278228
-70.703872
-78.124129
-29.328371
-49.303906
-167.276610
-179.750910
-213.551460
-218.564084
181.158206
155.994675
146.392173
113.747535
44.867276
32.449502
74.908999
51.267204
-44.935976
-41.468836
-12.899182
-14.720382
-113.898636
-113.845596
-144.285037
-143.332038
97.113840
78.842782
82.771861
56.150208
32.103612
32.156142
54.083201
36.937827
-8.344404
-15.478068
-3.306703
-7.085284
-68.892112
-73.060312
-103.223432
-92.100460
112.343437
95.901000
75.707602
44.616669
16.291049
7.510584
20.433463
19.277141
2.100113
2.116408
16.541825
25.295092
-21.660551
-38.242920
-67.174722
-60.017943
20.010823
18.212362
24.349047
12.398771
-9.349879
-23.248529
29.244122
25.470105
-3.338149
-18.434293
23.341692
34.333152
-15.665243
-33.905721
-33.911730
-31.487602
63.340785
47.993568
42.570116
26.202908
-51.981958
-62.198855
15.005577
26.827927
-44.309480
-51.659524
36.193352
45.471241
-31.495378
-48.185871
-48.298283
-61.612827
39.543968
2.602871
18.811185
2.099275
-77.490473
-89.027401
36.570404
43.205437
-62.413009
-62.840556
58.334700
69.203441
-24.544982
-19.316657
-25.968342
-35.056603
