# vtk DataFile Version 2.0
cantilever_tri3_mix
ASCII
DATASET POLYDATA
POINTS 85 float
0.000000 -6.000000 0.000000
48.000000 -6.000000 0.000000
48.000000 6.000000 0.000000
0.000000 6.000000 0.000000
3.000000 -6.000000 0.000000
6.000000 -6.000000 0.000000
9.000000 -6.000000 0.000000
12.000000 -6.000000 0.000000
15.000000 -6.000000 0.000000
18.000000 -6.000000 0.000000
21.000000 -6.000000 0.000000
24.000000 -6.000000 0.000000
27.000000 -6.000000 0.000000
30.000000 -6.000000 0.000000
33.000000 -6.000000 0.000000
36.000000 -6.000000 0.000000
39.000000 -6.000000 0.000000
42.000000 -6.000000 0.000000
45.000000 -6.000000 0.000000
48.000000 -3.000000 0.000000
48.000000 -0.000000 0.000000
48.000000 3.000000 0.000000
45.000000 6.000000 0.000000
42.000000 6.000000 0.000000
39.000000 6.000000 0.000000
36.000000 6.000000 0.000000
33.000000 6.000000 0.000000
30.000000 6.000000 0.000000
27.000000 6.000000 0.000000
24.000000 6.000000 0.000000
21.000000 6.000000 0.000000
18.000000 6.000000 0.000000
15.000000 6.000000 0.000000
12.000000 6.000000 0.000000
9.000000 6.000000 0.000000
6.000000 6.000000 0.000000
3.000000 6.000000 0.000000
0.000000 3.000000 0.000000
0.000000 0.000000 0.000000
0.000000 -3.000000 0.000000
3.000000 -3.000000 0.000000
3.000000 0.000000 0.000000
3.000000 3.000000 0.000000
6.000000 -3.000000 0.000000
6.000000 0.000000 0.000000
6.000000 3.000000 0.000000
9.000000 -3.000000 0.000000
9.000000 0.000000 0.000000
9.000000 3.000000 0.000000
12.000000 -3.000000 0.000000
12.000000 0.000000 0.000000
12.000000 3.000000 0.000000
15.000000 -3.000000 0.000000
15.000000 0.000000 0.000000
15.000000 3.000000 0.000000
18.000000 -3.000000 0.000000
18.000000 0.000000 0.000000
18.000000 3.000000 0.000000
21.000000 -3.000000 0.000000
21.000000 0.000000 0.000000
21.000000 3.000000 0.000000
24.000000 -3.000000 0.000000
24.000000 -0.000000 0.000000
24.000000 3.000000 0.000000
27.000000 -3.000000 0.000000
27.000000 -0.000000 0.000000
27.000000 3.000000 0.000000
30.000000 -3.000000 0.000000
30.000000 -0.000000 0.000000
30.000000 3.000000 0.000000
33.000000 -3.000000 0.000000
33.000000 -0.000000 0.000000
33.000000 3.000000 0.000000
36.000000 -3.000000 0.000000
36.000000 -0.000000 0.000000
36.000000 3.000000 0.000000
39.000000 -3.000000 0.000000
39.000000 -0.000000 0.000000
39.000000 3.000000 0.000000
42.000000 -3.000000 0.000000
42.000000 -0.000000 0.000000
42.000000 3.000000 0.000000
45.000000 -3.000000 0.000000
45.000000 -0.000000 0.000000
45.000000 3.000000 0.000000
POLYGONS 128 512
3 0 4 39
3 39 4 40
3 39 40 38
3 38 40 41
3 38 41 37
3 37 41 42
3 37 42 3
3 3 42 36
3 4 5 40
3 40 5 43
3 40 43 41
3 41 43 44
3 41 44 42
3 42 44 45
3 42 45 36
3 36 45 35
3 5 6 43
3 43 6 46
3 43 46 44
3 44 46 47
3 44 47 45
3 45 47 48
3 45 48 35
3 35 48 34
3 6 7 46
3 46 7 49
3 46 49 47
3 47 49 50
3 47 50 48
3 48 50 51
3 48 51 34
3 34 51 33
3 7 8 49
3 49 8 52
3 49 52 50
3 50 52 53
3 50 53 51
3 51 53 54
3 51 54 33
3 33 54 32
3 8 9 52
3 52 9 55
3 52 55 53
3 53 55 56
3 53 56 54
3 54 56 57
3 54 57 32
3 32 57 31
3 9 10 55
3 55 10 58
3 55 58 56
3 56 58 59
3 56 59 57
3 57 59 60
3 57 60 31
3 31 60 30
3 10 11 58
3 58 11 61
3 58 61 59
3 59 61 62
3 59 62 60
3 60 62 63
3 60 63 30
3 30 63 29
3 11 12 61
3 61 12 64
3 61 64 62
3 62 64 65
3 62 65 63
3 63 65 66
3 63 66 29
3 29 66 28
3 12 13 64
3 64 13 67
3 64 67 65
3 65 67 68
3 65 68 66
3 66 68 69
3 66 69 28
3 28 69 27
3 13 14 67
3 67 14 70
3 67 70 68
3 68 70 71
3 68 71 69
3 69 71 72
3 69 72 27
3 27 72 26
3 14 15 70
3 70 15 73
3 70 73 71
3 71 73 74
3 71 74 72
3 72 74 75
3 72 75 26
3 26 75 25
3 15 16 73
3 73 16 76
3 73 76 74
3 74 76 77
3 74 77 75
3 75 77 78
3 75 78 25
3 25 78 24
3 16 17 76
3 76 17 79
3 76 79 77
3 77 79 80
3 77 80 78
3 78 80 81
3 78 81 24
3 24 81 23
3 17 18 79
3 79 18 82
3 79 82 80
3 80 82 83
3 80 83 81
3 81 83 84
3 81 84 23
3 23 84 22
3 18 1 82
3 82 1 19
3 82 19 83
3 83 19 20
3 83 20 84
3 84 20 21
3 84 21 22
3 22 21 2
POINT_DATA 85
VECTORS U float
0.000006 0.001501 0.000000
0.012005 0.068497 0.000000
-0.011991 0.068488 0.000000
0.000012 0.001500 0.000000
0.001450 0.002055 0.000000
0.002806 0.003310 0.000000
0.004071 0.005225 0.000000
0.005245 0.007750 0.000000
0.006324 0.010832 0.000000
0.007309 0.014434 0.000000
0.008201 0.018505 0.000000
0.008999 0.022995 0.000000
0.009703 0.027862 0.000000
0.010313 0.033059 0.000000
0.010830 0.038532 0.000000
0.011252 0.044243 0.000000
0.011582 0.050143 0.000000
0.011816 0.056179 0.000000
0.011957 0.062313 0.000000
0.005928 0.068493 0.000000
-0.000006 0.068491 0.000000
-0.005929 0.068490 0.000000
-0.011946 0.062313 0.000000
-0.011806 0.056181 0.000000
-0.011573 0.050141 0.000000
-0.011246 0.044244 0.000000
-0.010825 0.038535 0.000000
-0.010310 0.033057 0.000000
-0.009701 0.027863 0.000000
-0.008999 0.022997 0.000000
-0.008203 0.018504 0.000000
-0.007313 0.014435 0.000000
-0.006330 0.010835 0.000000
-0.005252 0.007748 0.000000
-0.004082 0.005224 0.000000
-0.002817 0.003313 0.000000
-0.001456 0.002053 0.000000
0.000066 0.000369 0.000000
0.000001 0.000001 0.000000
-0.000070 0.000372 0.000000
0.000656 0.001002 0.000000
0.000003 0.000649 0.000000
-0.000654 0.000997 0.000000
0.001336 0.002328 0.000000
0.000005 0.002000 0.000000
-0.001333 0.002328 0.000000
0.001968 0.004310 0.000000
0.000004 0.004007 0.000000
-0.001966 0.004312 0.000000
0.002554 0.006904 0.000000
0.000003 0.006623 0.000000
-0.002552 0.006904 0.000000
0.003093 0.010059 0.000000
0.000003 0.009802 0.000000
-0.003092 0.010061 0.000000
0.003585 0.013730 0.000000
0.000001 0.013497 0.000000
-0.003584 0.013732 0.000000
0.004030 0.017872 0.000000
0.000001 0.017660 0.000000
-0.004029 0.017871 0.000000
0.004429 0.022432 0.000000
-0.000000 0.022246 0.000000
-0.004428 0.022435 0.000000
0.004779 0.027370 0.000000
-0.000002 0.027207 0.000000
-0.004780 0.027372 0.000000
0.005084 0.032636 0.000000
-0.000002 0.032495 0.000000
-0.005085 0.032636 0.000000
0.005342 0.038181 0.000000
-0.000003 0.038065 0.000000
-0.005343 0.038183 0.000000
0.005552 0.043962 0.000000
-0.000004 0.043869 0.000000
-0.005554 0.043963 0.000000
0.005717 0.049932 0.000000
-0.000005 0.049861 0.000000
-0.005718 0.049931 0.000000
0.005834 0.056039 0.000000
-0.000005 0.055993 0.000000
-0.005835 0.056040 0.000000
0.005903 0.062242 0.000000
-0.000006 0.062219 0.000000
-0.005906 0.062243 0.000000
CELL_DATA 128
SCALARS P float 3
LOOKUP_TABLE default
9.016833 -15.950991 -164.418481
36.379185 -16.946703 -154.772385
-10.625536 -6.666318 -164.994689
-7.862130 -9.988522 -158.244268
21.616922 13.085523 -170.124622
-58.735582 7.578861 -157.004762
-48.315797 9.039224 -158.250861
-7.205452 8.444074 -160.876682
101.484240 -9.103699 -154.242922
-254.219109 -15.004221 -148.405768
380.459999 -7.267456 -154.184367
-589.748535 -9.609150 -148.609277
241.484387 11.546187 -154.814932
-347.448072 8.596519 -148.963522
10.287248 15.522151 -155.676550
-93.318869 9.841885 -148.122738
300.168917 -10.510802 -143.575963
-547.374750 -15.144547 -138.228201
1215.428203 -6.955855 -143.341124
-1105.305511 -9.634322 -137.838519
454.059432 11.569028 -143.360617
-153.746065 8.044344 -137.045253
-111.216885 14.950957 -142.409740
-36.460981 9.326508 -137.183376
368.589381 -9.905937 -132.998451
-504.808702 -15.271149 -127.176864
1352.164942 -7.232999 -133.381129
-819.832161 -10.360297 -127.478872
-68.762055 11.068411 -132.849005
438.288398 7.985662 -127.536395
-479.846362 15.486113 -133.500288
43.334969 10.483156 -127.820314
379.023390 -9.597562 -122.399442
-482.245926 -14.823588 -116.813282
1244.912719 -6.991263 -122.515573
-741.698039 -10.027188 -117.067112
-430.559884 11.239803 -122.844361
550.390509 7.986648 -117.024381
-650.149685 15.327800 -122.596869
23.065396 9.908070 -116.574161
444.515463 -9.959176 -112.861593
-519.835731 -15.024504 -107.018562
1422.723667 -7.173265 -112.660903
-755.729686 -10.277212 -106.602972
-496.502048 10.902605 -112.021876
734.530076 7.619342 -105.999928
-745.114432 15.196280 -112.001793
35.452450 10.049011 -106.205770
473.219325 -9.666720 -101.764451
-409.209128 -15.158863 -95.796288
1332.575083 -7.627487 -101.731467
-357.339597 -10.817812 -96.114883
-986.489359 10.647431 -101.663740
1206.807440 7.661907 -96.299869
-1003.443444 15.351910 -101.820040
86.899879 10.087555 -96.363386
463.207886 -9.730471 -91.085326
-275.666416 -14.795267 -85.614990
1062.079591 -7.204596 -91.452873
-78.360145 -10.402655 -85.852326
-1363.999620 10.734126 -91.520499
1326.735998 7.559216 -85.669231
-1150.827035 15.438738 -91.663273
57.304429 10.250889 -85.585495
463.780402 -9.670988 -81.729866
-192.874143 -14.955514 -75.753527
966.762651 -7.660750 -81.220514
97.041120 -10.825452 -75.241938
-1470.964827 10.514388 -80.756217
1405.004740 7.445909 -74.814078
-1191.376378 15.249156 -80.510245
42.442101 9.888603 -74.736480
493.189249 -9.944407 -70.333516
-60.471434 -15.166401 -64.502376
825.324417 -7.826493 -70.629026
449.927652 -11.133138 -65.052263
-1801.207664 10.155189 -70.467109
1709.853286 7.204136 -65.061951
-1351.031457 15.425688 -70.779611
54.320478 10.359094 -65.274581
442.894741 -9.333966 -59.950495
161.578724 -14.642205 -54.413680
462.215847 -7.607460 -60.075617
892.579407 -10.929605 -54.369028
-2138.123862 10.380738 -60.249151
1792.294617 7.332414 -54.330071
-1456.764929 15.421666 -60.214906
25.493770 10.001069 -54.146336
414.092360 -9.936786 -50.456873
359.571243 -15.004709 -44.530403
110.284588 -7.918423 -50.096212
1218.183441 -11.212235 -44.248224
-2254.064192 9.976296 -49.462864
1751.561947 7.043429 -43.679569
-1434.956009 15.412187 -49.446618
-41.645159 10.308598 -43.776418
411.937399 -9.583147 -39.014560
507.551178 -15.036489 -33.016934
-42.924742 -8.251353 -39.211731
1486.836551 -11.635615 -33.438561
-2376.497579 9.801292 -39.222604
1813.736592 6.974191 -33.598483
-1481.857354 15.394029 -39.302428
-50.865002 10.089247 -33.570840
349.741294 -9.462404 -28.767233
820.579664 -14.583359 -23.548790
-480.284184 -7.791767 -29.034376
2001.672011 -11.269033 -23.591473
-2554.081938 9.837617 -29.073636
1735.628693 6.939938 -23.521297
-1494.616574 15.527094 -29.176931
-133.688618 10.365480 -23.636561
264.084937 -9.537736 -18.651983
1019.158472 -14.833873 -12.259189
-911.366100 -8.324911 -18.109595
1976.637198 -11.595421 -11.815689
-2377.646983 9.684253 -17.744332
1068.513856 6.919314 -11.552300
-1310.448181 15.393669 -17.670641
-275.249722 9.849970 -11.192046
410.151724 -10.277756 -8.560621
761.403354 -15.100361 -3.252205
-61.032972 -8.474459 -8.533413
760.668627 -11.670710 -3.524966
-1020.643547 9.406099 -8.213396
-125.945179 6.403329 -2.876701
-869.945347 15.408316 -8.148011
-471.786294 10.276976 -3.193364
