# vtk DataFile Version 2.0
cantilever_tri3_mix
ASCII
DATASET POLYDATA
POINTS 27 float
0.000000 -6.000000 0.000000
48.000000 -6.000000 0.000000
48.000000 6.000000 0.000000
0.000000 6.000000 0.000000
6.000000 -6.000000 0.000000
12.000000 -6.000000 0.000000
18.000000 -6.000000 0.000000
24.000000 -6.000000 0.000000
30.000000 -6.000000 0.000000
36.000000 -6.000000 0.000000
42.000000 -6.000000 0.000000
48.000000 -0.000000 0.000000
42.000000 6.000000 0.000000
36.000000 6.000000 0.000000
30.000000 6.000000 0.000000
24.000000 6.000000 0.000000
18.000000 6.000000 0.000000
12.000000 6.000000 0.000000
6.000000 6.000000 0.000000
0.000000 0.000000 0.000000
6.000000 0.000000 0.000000
12.000000 0.000000 0.000000
18.000000 0.000000 0.000000
24.000000 0.000000 0.000000
30.000000 -0.000000 0.000000
36.000000 -0.000000 0.000000
42.000000 -0.000000 0.000000
POLYGONS 32 128
3 0 4 19
3 19 4 20
3 19 20 3
3 3 20 18
3 4 5 20
3 20 5 21
3 20 21 18
3 18 21 17
3 5 6 21
3 21 6 22
3 21 22 17
3 17 22 16
3 6 7 22
3 22 7 23
3 22 23 16
3 16 23 15
3 7 8 23
3 23 8 24
3 23 24 15
3 15 24 14
3 8 9 24
3 24 9 25
3 24 25 14
3 14 25 13
3 9 10 25
3 25 10 26
3 25 26 13
3 13 26 12
3 10 1 26
3 26 1 11
3 26 11 12
3 12 11 2
POINT_DATA 27
VECTORS U float
-0.000075 0.000754 0.000000
0.014472 0.080684 0.000000
-0.014478 0.080690 0.000000
0.000067 0.000757 0.000000
0.003329 0.002806 0.000000
0.006289 0.008024 0.000000
0.008791 0.015970 0.000000
0.010838 0.026190 0.000000
0.012431 0.038231 0.000000
0.013567 0.051633 0.000000
0.014250 0.065968 0.000000
0.000002 0.080731 0.000000
-0.014248 0.065966 0.000000
-0.013566 0.051633 0.000000
-0.012431 0.038231 0.000000
-0.010837 0.026190 0.000000
-0.008790 0.015969 0.000000
-0.006287 0.008025 0.000000
-0.003326 0.002803 0.000000
-0.000004 -0.000024 0.000000
0.000001 0.002123 0.000000
0.000000 0.007438 0.000000
0.000000 0.015482 0.000000
0.000000 0.025800 0.000000
0.000000 0.037938 0.000000
0.000000 0.051442 0.000000
0.000001 0.065863 0.000000
CELL_DATA 32
SCALARS P float 1
LOOKUP_TABLE default
610.207826
289.388621
-316.645800
-582.409220
526.729430
247.894530
-269.161090
-507.294294
446.292780
208.387064
-227.852479
-426.502530
367.058990
168.789162
-188.561737
-347.433643
287.637637
128.663800
-148.777578
-267.436570
208.511536
90.246756
-109.117137
-189.770862
128.358585
46.851811
-69.287369
-105.144747
51.819328
17.081225
-28.073566
-41.525531
