# vtk DataFile Version 2.0
patchtest_tri3_mix
ASCII
DATASET POLYDATA
POINTS 384 float
0.000000 -6.000000 0.000000
48.000000 -6.000000 0.000000
48.000000 6.000000 0.000000
0.000000 6.000000 0.000000
3.000000 -6.000000 0.000000
6.000000 -6.000000 0.000000
9.000000 -6.000000 0.000000
12.000000 -6.000000 0.000000
15.000000 -6.000000 0.000000
18.000000 -6.000000 0.000000
21.000000 -6.000000 0.000000
24.000000 -6.000000 0.000000
27.000000 -6.000000 0.000000
30.000000 -6.000000 0.000000
33.000000 -6.000000 0.000000
36.000000 -6.000000 0.000000
39.000000 -6.000000 0.000000
42.000000 -6.000000 0.000000
45.000000 -6.000000 0.000000
48.000000 -3.000000 0.000000
48.000000 -0.000000 0.000000
48.000000 3.000000 0.000000
45.000000 6.000000 0.000000
42.000000 6.000000 0.000000
39.000000 6.000000 0.000000
36.000000 6.000000 0.000000
33.000000 6.000000 0.000000
30.000000 6.000000 0.000000
27.000000 6.000000 0.000000
24.000000 6.000000 0.000000
21.000000 6.000000 0.000000
18.000000 6.000000 0.000000
15.000000 6.000000 0.000000
12.000000 6.000000 0.000000
9.000000 6.000000 0.000000
6.000000 6.000000 0.000000
3.000000 6.000000 0.000000
0.000000 3.000000 0.000000
0.000000 0.000000 0.000000
0.000000 -3.000000 0.000000
3.000000 -3.000000 0.000000
3.000000 0.000000 0.000000
3.000000 3.000000 0.000000
6.000000 -3.000000 0.000000
6.000000 0.000000 0.000000
6.000000 3.000000 0.000000
9.000000 -3.000000 0.000000
9.000000 0.000000 0.000000
9.000000 3.000000 0.000000
12.000000 -3.000000 0.000000
12.000000 0.000000 0.000000
12.000000 3.000000 0.000000
15.000000 -3.000000 0.000000
15.000000 0.000000 0.000000
15.000000 3.000000 0.000000
18.000000 -3.000000 0.000000
18.000000 0.000000 0.000000
18.000000 3.000000 0.000000
21.000000 -3.000000 0.000000
21.000000 0.000000 0.000000
21.000000 3.000000 0.000000
24.000000 -3.000000 0.000000
24.000000 -0.000000 0.000000
24.000000 3.000000 0.000000
27.000000 -3.000000 0.000000
27.000000 -0.000000 0.000000
27.000000 3.000000 0.000000
30.000000 -3.000000 0.000000
30.000000 -0.000000 0.000000
30.000000 3.000000 0.000000
33.000000 -3.000000 0.000000
33.000000 -0.000000 0.000000
33.000000 3.000000 0.000000
36.000000 -3.000000 0.000000
36.000000 -0.000000 0.000000
36.000000 3.000000 0.000000
39.000000 -3.000000 0.000000
39.000000 -0.000000 0.000000
39.000000 3.000000 0.000000
42.000000 -3.000000 0.000000
42.000000 -0.000000 0.000000
42.000000 3.000000 0.000000
45.000000 -3.000000 0.000000
45.000000 -0.000000 0.000000
45.000000 3.000000 0.000000
POLYGONS 128 512
3 0 4 39
3 39 4 40
3 39 40 38
3 38 40 41
3 38 41 37
3 37 41 42
3 37 42 3
3 3 42 36
3 4 5 40
3 40 5 43
3 40 43 41
3 41 43 44
3 41 44 42
3 42 44 45
3 42 45 36
3 36 45 35
3 5 6 43
3 43 6 46
3 43 46 44
3 44 46 47
3 44 47 45
3 45 47 48
3 45 48 35
3 35 48 34
3 6 7 46
3 46 7 49
3 46 49 47
3 47 49 50
3 47 50 48
3 48 50 51
3 48 51 34
3 34 51 33
3 7 8 49
3 49 8 52
3 49 52 50
3 50 52 53
3 50 53 51
3 51 53 54
3 51 54 33
3 33 54 32
3 8 9 52
3 52 9 55
3 52 55 53
3 53 55 56
3 53 56 54
3 54 56 57
3 54 57 32
3 32 57 31
3 9 10 55
3 55 10 58
3 55 58 56
3 56 58 59
3 56 59 57
3 57 59 60
3 57 60 31
3 31 60 30
3 10 11 58
3 58 11 61
3 58 61 59
3 59 61 62
3 59 62 60
3 60 62 63
3 60 63 30
3 30 63 29
3 11 12 61
3 61 12 64
3 61 64 62
3 62 64 65
3 62 65 63
3 63 65 66
3 63 66 29
3 29 66 28
3 12 13 64
3 64 13 67
3 64 67 65
3 65 67 68
3 65 68 66
3 66 68 69
3 66 69 28
3 28 69 27
3 13 14 67
3 67 14 70
3 67 70 68
3 68 70 71
3 68 71 69
3 69 71 72
3 69 72 27
3 27 72 26
3 14 15 70
3 70 15 73
3 70 73 71
3 71 73 74
3 71 74 72
3 72 74 75
3 72 75 26
3 26 75 25
3 15 16 73
3 73 16 76
3 73 76 74
3 74 76 77
3 74 77 75
3 75 77 78
3 75 78 25
3 25 78 24
3 16 17 76
3 76 17 79
3 76 79 77
3 77 79 80
3 77 80 78
3 78 80 81
3 78 81 24
3 24 81 23
3 17 18 79
3 79 18 82
3 79 82 80
3 80 82 83
3 80 83 81
3 81 83 84
3 81 84 23
3 23 84 22
3 18 1 82
3 82 1 19
3 82 19 83
3 83 19 20
3 83 20 84
3 84 20 21
3 84 21 22
3 22 21 2
POINT_DATA 384
SCALARS P float 1
LOOKUP_TABLE default
1091.625299
38.145002
-12.853647
-1163.591558
973.853707
923.819234
839.014469
794.806181
711.768245
667.578432
582.736467
539.664635
451.883670
410.983421
318.838892
281.990150
182.752964
154.413175
40.012308
-7.545674
13.046636
-20.172339
-68.115709
-131.522956
-212.893703
-264.629377
-352.908624
-402.223375
-492.366354
-542.451165
-632.513215
-684.512613
-773.549809
-828.237686
-915.982908
-975.395223
-1070.428666
-364.660780
-44.638958
443.495474
453.249396
-44.737186
-359.530220
408.461028
-27.872779
-356.245713
395.941365
-37.126468
-319.234557
345.384465
-17.625785
-312.695024
333.239879
-30.288465
-270.918144
282.495808
-8.941771
-266.765785
272.047094
-24.574750
-221.381773
220.886448
-1.724688
-219.512838
212.033659
-20.090340
-170.412709
160.859110
4.111756
-171.212828
152.927500
-16.871440
-117.598155
102.930525
8.513889
-122.136222
94.158335
-14.970854
-62.552256
47.791746
11.487376
-72.891343
35.832370
-14.292383
-5.836351
