# vtk DataFile Version 2.0
cantilever_tri3_mix
ASCII
DATASET POLYDATA
POINTS 297 float
0.000000 -6.000000 0.000000
48.000000 -6.000000 0.000000
48.000000 6.000000 0.000000
0.000000 6.000000 0.000000
1.500000 -6.000000 0.000000
3.000000 -6.000000 0.000000
4.500000 -6.000000 0.000000
6.000000 -6.000000 0.000000
7.500000 -6.000000 0.000000
9.000000 -6.000000 0.000000
10.500000 -6.000000 0.000000
12.000000 -6.000000 0.000000
13.500000 -6.000000 0.000000
15.000000 -6.000000 0.000000
16.500000 -6.000000 0.000000
18.000000 -6.000000 0.000000
19.500000 -6.000000 0.000000
21.000000 -6.000000 0.000000
22.500000 -6.000000 0.000000
24.000000 -6.000000 0.000000
25.500000 -6.000000 0.000000
27.000000 -6.000000 0.000000
28.500000 -6.000000 0.000000
30.000000 -6.000000 0.000000
31.500000 -6.000000 0.000000
33.000000 -6.000000 0.000000
34.500000 -6.000000 0.000000
36.000000 -6.000000 0.000000
37.500000 -6.000000 0.000000
39.000000 -6.000000 0.000000
40.500000 -6.000000 0.000000
42.000000 -6.000000 0.000000
43.500000 -6.000000 0.000000
45.000000 -6.000000 0.000000
46.500000 -6.000000 0.000000
48.000000 -4.500000 0.000000
48.000000 -3.000000 0.000000
48.000000 -1.500000 0.000000
48.000000 -0.000000 0.000000
48.000000 1.500000 0.000000
48.000000 3.000000 0.000000
48.000000 4.500000 0.000000
46.500000 6.000000 0.000000
45.000000 6.000000 0.000000
43.500000 6.000000 0.000000
42.000000 6.000000 0.000000
40.500000 6.000000 0.000000
39.000000 6.000000 0.000000
37.500000 6.000000 0.000000
36.000000 6.000000 0.000000
34.500000 6.000000 0.000000
33.000000 6.000000 0.000000
31.500000 6.000000 0.000000
30.000000 6.000000 0.000000
28.500000 6.000000 0.000000
27.000000 6.000000 0.000000
25.500000 6.000000 0.000000
24.000000 6.000000 0.000000
22.500000 6.000000 0.000000
21.000000 6.000000 0.000000
19.500000 6.000000 0.000000
18.000000 6.000000 0.000000
16.500000 6.000000 0.000000
15.000000 6.000000 0.000000
13.500000 6.000000 0.000000
12.000000 6.000000 0.000000
10.500000 6.000000 0.000000
9.000000 6.000000 0.000000
7.500000 6.000000 0.000000
6.000000 6.000000 0.000000
4.500000 6.000000 0.000000
3.000000 6.000000 0.000000
1.500000 6.000000 0.000000
0.000000 4.500000 0.000000
0.000000 3.000000 0.000000
0.000000 1.500000 0.000000
0.000000 0.000000 0.000000
0.000000 -1.500000 0.000000
0.000000 -3.000000 0.000000
0.000000 -4.500000 0.000000
1.500000 -4.500000 0.000000
1.500000 -3.000000 0.000000
1.500000 -1.500000 0.000000
1.500000 0.000000 0.000000
1.500000 1.500000 0.000000
1.500000 3.000000 0.000000
1.500000 4.500000 0.000000
3.000000 -4.500000 0.000000
3.000000 -3.000000 0.000000
3.000000 -1.500000 0.000000
3.000000 0.000000 0.000000
3.000000 1.500000 0.000000
3.000000 3.000000 0.000000
3.000000 4.500000 0.000000
4.500000 -4.500000 0.000000
4.500000 -3.000000 0.000000
4.500000 -1.500000 0.000000
4.500000 0.000000 0.000000
4.500000 1.500000 0.000000
4.500000 3.000000 0.000000
4.500000 4.500000 0.000000
6.000000 -4.500000 0.000000
6.000000 -3.000000 0.000000
6.000000 -1.500000 0.000000
6.000000 0.000000 0.000000
6.000000 1.500000 0.000000
6.000000 3.000000 0.000000
6.000000 4.500000 0.000000
7.500000 -4.500000 0.000000
7.500000 -3.000000 0.000000
7.500000 -1.500000 0.000000
7.500000 0.000000 0.000000
7.500000 1.500000 0.000000
7.500000 3.000000 0.000000
7.500000 4.500000 0.000000
9.000000 -4.500000 0.000000
9.000000 -3.000000 0.000000
9.000000 -1.500000 0.000000
9.000000 0.000000 0.000000
9.000000 1.500000 0.000000
9.000000 3.000000 0.000000
9.000000 4.500000 0.000000
10.500000 -4.500000 0.000000
10.500000 -3.000000 0.000000
10.500000 -1.500000 0.000000
10.500000 0.000000 0.000000
10.500000 1.500000 0.000000
10.500000 3.000000 0.000000
10.500000 4.500000 0.000000
12.000000 -4.500000 0.000000
12.000000 -3.000000 0.000000
12.000000 -1.500000 0.000000
12.000000 0.000000 0.000000
12.000000 1.500000 0.000000
12.000000 3.000000 0.000000
12.000000 4.500000 0.000000
13.500000 -4.500000 0.000000
13.500000 -3.000000 0.000000
13.500000 -1.500000 0.000000
13.500000 0.000000 0.000000
13.500000 1.500000 0.000000
13.500000 3.000000 0.000000
13.500000 4.500000 0.000000
15.000000 -4.500000 0.000000
15.000000 -3.000000 0.000000
15.000000 -1.500000 0.000000
15.000000 0.000000 0.000000
15.000000 1.500000 0.000000
15.000000 3.000000 0.000000
15.000000 4.500000 0.000000
16.500000 -4.500000 0.000000
16.500000 -3.000000 0.000000
16.500000 -1.500000 0.000000
16.500000 0.000000 0.000000
16.500000 1.500000 0.000000
16.500000 3.000000 0.000000
16.500000 4.500000 0.000000
18.000000 -4.500000 0.000000
18.000000 -3.000000 0.000000
18.000000 -1.500000 0.000000
18.000000 0.000000 0.000000
18.000000 1.500000 0.000000
18.000000 3.000000 0.000000
18.000000 4.500000 0.000000
19.500000 -4.500000 0.000000
19.500000 -3.000000 0.000000
19.500000 -1.500000 0.000000
19.500000 0.000000 0.000000
19.500000 1.500000 0.000000
19.500000 3.000000 0.000000
19.500000 4.500000 0.000000
21.000000 -4.500000 0.000000
21.000000 -3.000000 0.000000
21.000000 -1.500000 0.000000
21.000000 0.000000 0.000000
21.000000 1.500000 0.000000
21.000000 3.000000 0.000000
21.000000 4.500000 0.000000
22.500000 -4.500000 0.000000
22.500000 -3.000000 0.000000
22.500000 -1.500000 0.000000
22.500000 0.000000 0.000000
22.500000 1.500000 0.000000
22.500000 3.000000 0.000000
22.500000 4.500000 0.000000
24.000000 -4.500000 0.000000
24.000000 -3.000000 0.000000
24.000000 -1.500000 0.000000
24.000000 0.000000 0.000000
24.000000 1.500000 0.000000
24.000000 3.000000 0.000000
24.000000 4.500000 0.000000
25.500000 -4.500000 0.000000
25.500000 -3.000000 0.000000
25.500000 -1.500000 0.000000
25.500000 -0.000000 0.000000
25.500000 1.500000 0.000000
25.500000 3.000000 0.000000
25.500000 4.500000 0.000000
27.000000 -4.500000 0.000000
27.000000 -3.000000 0.000000
27.000000 -1.500000 0.000000
27.000000 -0.000000 0.000000
27.000000 1.500000 0.000000
27.000000 3.000000 0.000000
27.000000 4.500000 0.000000
28.500000 -4.500000 0.000000
28.500000 -3.000000 0.000000
28.500000 -1.500000 0.000000
28.500000 -0.000000 0.000000
28.500000 1.500000 0.000000
28.500000 3.000000 0.000000
28.500000 4.500000 0.000000
30.000000 -4.500000 0.000000
30.000000 -3.000000 0.000000
30.000000 -1.500000 0.000000
30.000000 -0.000000 0.000000
30.000000 1.500000 0.000000
30.000000 3.000000 0.000000
30.000000 4.500000 0.000000
31.500000 -4.500000 0.000000
31.500000 -3.000000 0.000000
31.500000 -1.500000 0.000000
31.500000 -0.000000 0.000000
31.500000 1.500000 0.000000
31.500000 3.000000 0.000000
31.500000 4.500000 0.000000
33.000000 -4.500000 0.000000
33.000000 -3.000000 0.000000
33.000000 -1.500000 0.000000
33.000000 -0.000000 0.000000
33.000000 1.500000 0.000000
33.000000 3.000000 0.000000
33.000000 4.500000 0.000000
34.500000 -4.500000 0.000000
34.500000 -3.000000 0.000000
34.500000 -1.500000 0.000000
34.500000 -0.000000 0.000000
34.500000 1.500000 0.000000
34.500000 3.000000 0.000000
34.500000 4.500000 0.000000
36.000000 -4.500000 0.000000
36.000000 -3.000000 0.000000
36.000000 -1.500000 0.000000
36.000000 -0.000000 0.000000
36.000000 1.500000 0.000000
36.000000 3.000000 0.000000
36.000000 4.500000 0.000000
37.500000 -4.500000 0.000000
37.500000 -3.000000 0.000000
37.500000 -1.500000 0.000000
37.500000 -0.000000 0.000000
37.500000 1.500000 0.000000
37.500000 3.000000 0.000000
37.500000 4.500000 0.000000
39.000000 -4.500000 0.000000
39.000000 -3.000000 0.000000
39.000000 -1.500000 0.000000
39.000000 -0.000000 0.000000
39.000000 1.500000 0.000000
39.000000 3.000000 0.000000
39.000000 4.500000 0.000000
40.500000 -4.500000 0.000000
40.500000 -3.000000 0.000000
40.500000 -1.500000 0.000000
40.500000 -0.000000 0.000000
40.500000 1.500000 0.000000
40.500000 3.000000 0.000000
40.500000 4.500000 0.000000
42.000000 -4.500000 0.000000
42.000000 -3.000000 0.000000
42.000000 -1.500000 0.000000
42.000000 -0.000000 0.000000
42.000000 1.500000 0.000000
42.000000 3.000000 0.000000
42.000000 4.500000 0.000000
43.500000 -4.500000 0.000000
43.500000 -3.000000 0.000000
43.500000 -1.500000 0.000000
43.500000 -0.000000 0.000000
43.500000 1.500000 0.000000
43.500000 3.000000 0.000000
43.500000 4.500000 0.000000
45.000000 -4.500000 0.000000
45.000000 -3.000000 0.000000
45.000000 -1.500000 0.000000
45.000000 -0.000000 0.000000
45.000000 1.500000 0.000000
45.000000 3.000000 0.000000
45.000000 4.500000 0.000000
46.500000 -4.500000 0.000000
46.500000 -3.000000 0.000000
46.500000 -1.500000 0.000000
46.500000 -0.000000 0.000000
46.500000 1.500000 0.000000
46.500000 3.000000 0.000000
46.500000 4.500000 0.000000
POLYGONS 512 2048
3 0 4 79
3 79 4 80
3 79 80 78
3 78 80 81
3 78 81 77
3 77 81 82
3 77 82 76
3 76 82 83
3 76 83 75
3 75 83 84
3 75 84 74
3 74 84 85
3 74 85 73
3 73 85 86
3 73 86 3
3 3 86 72
3 4 5 80
3 80 5 87
3 80 87 81
3 81 87 88
3 81 88 82
3 82 88 89
3 82 89 83
3 83 89 90
3 83 90 84
3 84 90 91
3 84 91 85
3 85 91 92
3 85 92 86
3 86 92 93
3 86 93 72
3 72 93 71
3 5 6 87
3 87 6 94
3 87 94 88
3 88 94 95
3 88 95 89
3 89 95 96
3 89 96 90
3 90 96 97
3 90 97 91
3 91 97 98
3 91 98 92
3 92 98 99
3 92 99 93
3 93 99 100
3 93 100 71
3 71 100 70
3 6 7 94
3 94 7 101
3 94 101 95
3 95 101 102
3 95 102 96
3 96 102 103
3 96 103 97
3 97 103 104
3 97 104 98
3 98 104 105
3 98 105 99
3 99 105 106
3 99 106 100
3 100 106 107
3 100 107 70
3 70 107 69
3 7 8 101
3 101 8 108
3 101 108 102
3 102 108 109
3 102 109 103
3 103 109 110
3 103 110 104
3 104 110 111
3 104 111 105
3 105 111 112
3 105 112 106
3 106 112 113
3 106 113 107
3 107 113 114
3 107 114 69
3 69 114 68
3 8 9 108
3 108 9 115
3 108 115 109
3 109 115 116
3 109 116 110
3 110 116 117
3 110 117 111
3 111 117 118
3 111 118 112
3 112 118 119
3 112 119 113
3 113 119 120
3 113 120 114
3 114 120 121
3 114 121 68
3 68 121 67
3 9 10 115
3 115 10 122
3 115 122 116
3 116 122 123
3 116 123 117
3 117 123 124
3 117 124 118
3 118 124 125
3 118 125 119
3 119 125 126
3 119 126 120
3 120 126 127
3 120 127 121
3 121 127 128
3 121 128 67
3 67 128 66
3 10 11 122
3 122 11 129
3 122 129 123
3 123 129 130
3 123 130 124
3 124 130 131
3 124 131 125
3 125 131 132
3 125 132 126
3 126 132 133
3 126 133 127
3 127 133 134
3 127 134 128
3 128 134 135
3 128 135 66
3 66 135 65
3 11 12 129
3 129 12 136
3 129 136 130
3 130 136 137
3 130 137 131
3 131 137 138
3 131 138 132
3 132 138 139
3 132 139 133
3 133 139 140
3 133 140 134
3 134 140 141
3 134 141 135
3 135 141 142
3 135 142 65
3 65 142 64
3 12 13 136
3 136 13 143
3 136 143 137
3 137 143 144
3 137 144 138
3 138 144 145
3 138 145 139
3 139 145 146
3 139 146 140
3 140 146 147
3 140 147 141
3 141 147 148
3 141 148 142
3 142 148 149
3 142 149 64
3 64 149 63
3 13 14 143
3 143 14 150
3 143 150 144
3 144 150 151
3 144 151 145
3 145 151 152
3 145 152 146
3 146 152 153
3 146 153 147
3 147 153 154
3 147 154 148
3 148 154 155
3 148 155 149
3 149 155 156
3 149 156 63
3 63 156 62
3 14 15 150
3 150 15 157
3 150 157 151
3 151 157 158
3 151 158 152
3 152 158 159
3 152 159 153
3 153 159 160
3 153 160 154
3 154 160 161
3 154 161 155
3 155 161 162
3 155 162 156
3 156 162 163
3 156 163 62
3 62 163 61
3 15 16 157
3 157 16 164
3 157 164 158
3 158 164 165
3 158 165 159
3 159 165 166
3 159 166 160
3 160 166 167
3 160 167 161
3 161 167 168
3 161 168 162
3 162 168 169
3 162 169 163
3 163 169 170
3 163 170 61
3 61 170 60
3 16 17 164
3 164 17 171
3 164 171 165
3 165 171 172
3 165 172 166
3 166 172 173
3 166 173 167
3 167 173 174
3 167 174 168
3 168 174 175
3 168 175 169
3 169 175 176
3 169 176 170
3 170 176 177
3 170 177 60
3 60 177 59
3 17 18 171
3 171 18 178
3 171 178 172
3 172 178 179
3 172 179 173
3 173 179 180
3 173 180 174
3 174 180 181
3 174 181 175
3 175 181 182
3 175 182 176
3 176 182 183
3 176 183 177
3 177 183 184
3 177 184 59
3 59 184 58
3 18 19 178
3 178 19 185
3 178 185 179
3 179 185 186
3 179 186 180
3 180 186 187
3 180 187 181
3 181 187 188
3 181 188 182
3 182 188 189
3 182 189 183
3 183 189 190
3 183 190 184
3 184 190 191
3 184 191 58
3 58 191 57
3 19 20 185
3 185 20 192
3 185 192 186
3 186 192 193
3 186 193 187
3 187 193 194
3 187 194 188
3 188 194 195
3 188 195 189
3 189 195 196
3 189 196 190
3 190 196 197
3 190 197 191
3 191 197 198
3 191 198 57
3 57 198 56
3 20 21 192
3 192 21 199
3 192 199 193
3 193 199 200
3 193 200 194
3 194 200 201
3 194 201 195
3 195 201 202
3 195 202 196
3 196 202 203
3 196 203 197
3 197 203 204
3 197 204 198
3 198 204 205
3 198 205 56
3 56 205 55
3 21 22 199
3 199 22 206
3 199 206 200
3 200 206 207
3 200 207 201
3 201 207 208
3 201 208 202
3 202 208 209
3 202 209 203
3 203 209 210
3 203 210 204
3 204 210 211
3 204 211 205
3 205 211 212
3 205 212 55
3 55 212 54
3 22 23 206
3 206 23 213
3 206 213 207
3 207 213 214
3 207 214 208
3 208 214 215
3 208 215 209
3 209 215 216
3 209 216 210
3 210 216 217
3 210 217 211
3 211 217 218
3 211 218 212
3 212 218 219
3 212 219 54
3 54 219 53
3 23 24 213
3 213 24 220
3 213 220 214
3 214 220 221
3 214 221 215
3 215 221 222
3 215 222 216
3 216 222 223
3 216 223 217
3 217 223 224
3 217 224 218
3 218 224 225
3 218 225 219
3 219 225 226
3 219 226 53
3 53 226 52
3 24 25 220
3 220 25 227
3 220 227 221
3 221 227 228
3 221 228 222
3 222 228 229
3 222 229 223
3 223 229 230
3 223 230 224
3 224 230 231
3 224 231 225
3 225 231 232
3 225 232 226
3 226 232 233
3 226 233 52
3 52 233 51
3 25 26 227
3 227 26 234
3 227 234 228
3 228 234 235
3 228 235 229
3 229 235 236
3 229 236 230
3 230 236 237
3 230 237 231
3 231 237 238
3 231 238 232
3 232 238 239
3 232 239 233
3 233 239 240
3 233 240 51
3 51 240 50
3 26 27 234
3 234 27 241
3 234 241 235
3 235 241 242
3 235 242 236
3 236 242 243
3 236 243 237
3 237 243 244
3 237 244 238
3 238 244 245
3 238 245 239
3 239 245 246
3 239 246 240
3 240 246 247
3 240 247 50
3 50 247 49
3 27 28 241
3 241 28 248
3 241 248 242
3 242 248 249
3 242 249 243
3 243 249 250
3 243 250 244
3 244 250 251
3 244 251 245
3 245 251 252
3 245 252 246
3 246 252 253
3 246 253 247
3 247 253 254
3 247 254 49
3 49 254 48
3 28 29 248
3 248 29 255
3 248 255 249
3 249 255 256
3 249 256 250
3 250 256 257
3 250 257 251
3 251 257 258
3 251 258 252
3 252 258 259
3 252 259 253
3 253 259 260
3 253 260 254
3 254 260 261
3 254 261 48
3 48 261 47
3 29 30 255
3 255 30 262
3 255 262 256
3 256 262 263
3 256 263 257
3 257 263 264
3 257 264 258
3 258 264 265
3 258 265 259
3 259 265 266
3 259 266 260
3 260 266 267
3 260 267 261
3 261 267 268
3 261 268 47
3 47 268 46
3 30 31 262
3 262 31 269
3 262 269 263
3 263 269 270
3 263 270 264
3 264 270 271
3 264 271 265
3 265 271 272
3 265 272 266
3 266 272 273
3 266 273 267
3 267 273 274
3 267 274 268
3 268 274 275
3 268 275 46
3 46 275 45
3 31 32 269
3 269 32 276
3 269 276 270
3 270 276 277
3 270 277 271
3 271 277 278
3 271 278 272
3 272 278 279
3 272 279 273
3 273 279 280
3 273 280 274
3 274 280 281
3 274 281 275
3 275 281 282
3 275 282 45
3 45 282 44
3 32 33 276
3 276 33 283
3 276 283 277
3 277 283 284
3 277 284 278
3 278 284 285
3 278 285 279
3 279 285 286
3 279 286 280
3 280 286 287
3 280 287 281
3 281 287 288
3 281 288 282
3 282 288 289
3 282 289 44
3 44 289 43
3 33 34 283
3 283 34 290
3 283 290 284
3 284 290 291
3 284 291 285
3 285 291 292
3 285 292 286
3 286 292 293
3 286 293 287
3 287 293 294
3 287 294 288
3 288 294 295
3 288 295 289
3 289 295 296
3 289 296 43
3 43 296 42
3 34 1 290
3 290 1 35
3 290 35 291
3 291 35 36
3 291 36 292
3 292 36 37
3 292 37 293
3 293 37 38
3 293 38 294
3 294 38 39
3 294 39 295
3 295 39 40
3 295 40 296
3 296 40 41
3 296 41 42
3 42 41 2
POINT_DATA 297
VECTORS U float
0.000000 0.001500 0.000000
0.012000 0.068501 0.000000
-0.012000 0.068501 0.000000
0.000001 0.001500 0.000000
0.000738 0.001687 0.000000
0.001453 0.002055 0.000000
0.002145 0.002599 0.000000
0.002813 0.003312 0.000000
0.003457 0.004190 0.000000
0.004078 0.005227 0.000000
0.004676 0.006415 0.000000
0.005250 0.007750 0.000000
0.005801 0.009226 0.000000
0.006328 0.010836 0.000000
0.006832 0.012575 0.000000
0.007313 0.014438 0.000000
0.007770 0.016417 0.000000
0.008203 0.018508 0.000000
0.008613 0.020704 0.000000
0.009000 0.023000 0.000000
0.009363 0.025390 0.000000
0.009703 0.027867 0.000000
0.010020 0.030427 0.000000
0.010313 0.033063 0.000000
0.010582 0.035769 0.000000
0.010828 0.038539 0.000000
0.011051 0.041369 0.000000
0.011250 0.044251 0.000000
0.011426 0.047179 0.000000
0.011578 0.050149 0.000000
0.011707 0.053154 0.000000
0.011813 0.056188 0.000000
0.011895 0.059246 0.000000
0.011953 0.062321 0.000000
0.011989 0.065408 0.000000
0.008939 0.068501 0.000000
0.005930 0.068501 0.000000
0.002956 0.068501 0.000000
0.000000 0.068501 0.000000
-0.002956 0.068501 0.000000
-0.005930 0.068501 0.000000
-0.008938 0.068501 0.000000
-0.011988 0.065408 0.000000
-0.011953 0.062321 0.000000
-0.011895 0.059246 0.000000
-0.011813 0.056188 0.000000
-0.011707 0.053154 0.000000
-0.011578 0.050149 0.000000
-0.011426 0.047179 0.000000
-0.011250 0.044251 0.000000
-0.011051 0.041369 0.000000
-0.010828 0.038540 0.000000
-0.010582 0.035769 0.000000
-0.010313 0.033063 0.000000
-0.010020 0.030427 0.000000
-0.009703 0.027867 0.000000
-0.009363 0.025390 0.000000
-0.009000 0.023000 0.000000
-0.008613 0.020704 0.000000
-0.008203 0.018508 0.000000
-0.007770 0.016417 0.000000
-0.007313 0.014438 0.000000
-0.006832 0.012575 0.000000
-0.006328 0.010836 0.000000
-0.005801 0.009226 0.000000
-0.005250 0.007750 0.000000
-0.004676 0.006415 0.000000
-0.004078 0.005227 0.000000
-0.003457 0.004190 0.000000
-0.002812 0.003312 0.000000
-0.002145 0.002599 0.000000
-0.001453 0.002055 0.000000
-0.000738 0.001686 0.000000
0.000061 0.000843 0.000000
0.000071 0.000375 0.000000
0.000044 0.000093 0.000000
0.000000 -0.000000 0.000000
-0.000044 0.000093 0.000000
-0.000070 0.000375 0.000000
-0.000062 0.000843 0.000000
0.000492 0.001051 0.000000
0.000299 0.000597 0.000000
0.000141 0.000324 0.000000
-0.000000 0.000233 0.000000
-0.000141 0.000324 0.000000
-0.000299 0.000597 0.000000
-0.000492 0.001051 0.000000
0.001028 0.001439 0.000000
0.000656 0.001000 0.000000
0.000319 0.000736 0.000000
-0.000000 0.000648 0.000000
-0.000319 0.000736 0.000000
-0.000656 0.001000 0.000000
-0.001028 0.001439 0.000000
0.001547 0.002004 0.000000
0.001002 0.001579 0.000000
0.000492 0.001324 0.000000
0.000000 0.001239 0.000000
-0.000492 0.001324 0.000000
-0.001002 0.001579 0.000000
-0.001547 0.002004 0.000000
0.002048 0.002738 0.000000
0.001336 0.002328 0.000000
0.000659 0.002082 0.000000
0.000000 0.002000 0.000000
-0.000659 0.002082 0.000000
-0.001336 0.002328 0.000000
-0.002048 0.002738 0.000000
0.002531 0.003637 0.000000
0.001658 0.003241 0.000000
0.000820 0.003004 0.000000
0.000000 0.002925 0.000000
-0.000820 0.003004 0.000000
-0.001658 0.003241 0.000000
-0.002531 0.003637 0.000000
0.002997 0.004693 0.000000
0.001969 0.004313 0.000000
0.000976 0.004084 0.000000
0.000000 0.004008 0.000000
-0.000976 0.004084 0.000000
-0.001969 0.004313 0.000000
-0.002997 0.004693 0.000000
0.003445 0.005902 0.000000
0.002268 0.005536 0.000000
0.001125 0.005316 0.000000
0.000000 0.005243 0.000000
-0.001125 0.005316 0.000000
-0.002268 0.005536 0.000000
-0.003445 0.005902 0.000000
0.003876 0.007258 0.000000
0.002555 0.006906 0.000000
0.001269 0.006695 0.000000
0.000000 0.006625 0.000000
-0.001268 0.006695 0.000000
-0.002555 0.006906 0.000000
-0.003876 0.007258 0.000000
0.004289 0.008754 0.000000
0.002830 0.008417 0.000000
0.001406 0.008215 0.000000
0.000000 0.008148 0.000000
-0.001406 0.008215 0.000000
-0.002830 0.008417 0.000000
-0.004289 0.008754 0.000000
0.004685 0.010385 0.000000
0.003094 0.010063 0.000000
0.001538 0.009869 0.000000
0.000000 0.009805 0.000000
-0.001538 0.009869 0.000000
-0.003094 0.010063 0.000000
-0.004684 0.010385 0.000000
0.005063 0.012145 0.000000
0.003346 0.011837 0.000000
0.001664 0.011652 0.000000
0.000000 0.011591 0.000000
-0.001664 0.011652 0.000000
-0.003346 0.011837 0.000000
-0.005062 0.012145 0.000000
0.005423 0.014027 0.000000
0.003586 0.013735 0.000000
0.001784 0.013559 0.000000
0.000000 0.013500 0.000000
-0.001784 0.013559 0.000000
-0.003586 0.013735 0.000000
-0.005423 0.014027 0.000000
0.005766 0.016027 0.000000
0.003815 0.015749 0.000000
0.001898 0.015582 0.000000
0.000000 0.015527 0.000000
-0.001898 0.015582 0.000000
-0.003814 0.015749 0.000000
-0.005766 0.016027 0.000000
0.006091 0.018139 0.000000
0.004031 0.017875 0.000000
0.002007 0.017717 0.000000
0.000000 0.017664 0.000000
-0.002007 0.017717 0.000000
-0.004031 0.017875 0.000000
-0.006091 0.018139 0.000000
0.006398 0.020356 0.000000
0.004236 0.020107 0.000000
0.002109 0.019957 0.000000
0.000000 0.019907 0.000000
-0.002109 0.019957 0.000000
-0.004236 0.020107 0.000000
-0.006398 0.020356 0.000000
0.006689 0.022672 0.000000
0.004430 0.022438 0.000000
0.002206 0.022297 0.000000
0.000000 0.022250 0.000000
-0.002206 0.022297 0.000000
-0.004430 0.022438 0.000000
-0.006688 0.022672 0.000000
0.006961 0.025082 0.000000
0.004611 0.024863 0.000000
0.002297 0.024731 0.000000
0.000000 0.024687 0.000000
-0.002297 0.024731 0.000000
-0.004611 0.024863 0.000000
-0.006961 0.025082 0.000000
0.007216 0.027580 0.000000
0.004781 0.027375 0.000000
0.002382 0.027252 0.000000
0.000000 0.027211 0.000000
-0.002382 0.027252 0.000000
-0.004781 0.027375 0.000000
-0.007216 0.027580 0.000000
0.007453 0.030160 0.000000
0.004940 0.029970 0.000000
0.002461 0.029856 0.000000
0.000000 0.029818 0.000000
-0.002461 0.029856 0.000000
-0.004939 0.029970 0.000000
-0.007453 0.030161 0.000000
0.007673 0.032817 0.000000
0.005086 0.032641 0.000000
0.002534 0.032536 0.000000
0.000000 0.032500 0.000000
-0.002534 0.032536 0.000000
-0.005086 0.032641 0.000000
-0.007673 0.032817 0.000000
0.007875 0.035543 0.000000
0.005221 0.035382 0.000000
0.002602 0.035286 0.000000
0.000000 0.035253 0.000000
-0.002601 0.035286 0.000000
-0.005221 0.035382 0.000000
-0.007875 0.035543 0.000000
0.008060 0.038334 0.000000
0.005344 0.038188 0.000000
0.002663 0.038100 0.000000
0.000000 0.038071 0.000000
-0.002663 0.038100 0.000000
-0.005344 0.038188 0.000000
-0.008059 0.038334 0.000000
0.008227 0.041184 0.000000
0.005455 0.041052 0.000000
0.002719 0.040973 0.000000
0.000000 0.040947 0.000000
-0.002719 0.040973 0.000000
-0.005455 0.041052 0.000000
-0.008226 0.041184 0.000000
0.008376 0.044086 0.000000
0.005555 0.043969 0.000000
0.002769 0.043899 0.000000
0.000000 0.043876 0.000000
-0.002768 0.043899 0.000000
-0.005555 0.043969 0.000000
-0.008376 0.044086 0.000000
0.008508 0.047036 0.000000
0.005643 0.046933 0.000000
0.002813 0.046872 0.000000
0.000000 0.046851 0.000000
-0.002812 0.046872 0.000000
-0.005643 0.046933 0.000000
-0.008508 0.047036 0.000000
0.008622 0.050026 0.000000
0.005719 0.049938 0.000000
0.002851 0.049885 0.000000
0.000000 0.049868 0.000000
-0.002851 0.049885 0.000000
-0.005719 0.049938 0.000000
-0.008622 0.050026 0.000000
0.008719 0.053051 0.000000
0.005783 0.052978 0.000000
0.002883 0.052934 0.000000
0.000000 0.052920 0.000000
-0.002883 0.052934 0.000000
-0.005783 0.052978 0.000000
-0.008719 0.053051 0.000000
0.008798 0.056106 0.000000
0.005836 0.056048 0.000000
0.002909 0.056012 0.000000
0.000000 0.056001 0.000000
-0.002909 0.056012 0.000000
-0.005836 0.056048 0.000000
-0.008798 0.056106 0.000000
0.008859 0.059184 0.000000
0.005877 0.059140 0.000000
0.002930 0.059114 0.000000
0.000000 0.059105 0.000000
-0.002930 0.059114 0.000000
-0.005877 0.059140 0.000000
-0.008859 0.059184 0.000000
0.008903 0.062280 0.000000
0.005906 0.062251 0.000000
0.002944 0.062233 0.000000
0.000000 0.062227 0.000000
-0.002944 0.062233 0.000000
-0.005906 0.062251 0.000000
-0.008903 0.062280 0.000000
0.008930 0.065388 0.000000
0.005924 0.065373 0.000000
0.002953 0.065364 0.000000
0.000000 0.065361 0.000000
-0.002953 0.065364 0.000000
-0.005924 0.065373 0.000000
-0.008930 0.065388 0.000000
CELL_DATA 512
SCALARS P float 1
LOOKUP_TABLE default
1209.186538
1088.272001
877.940290
762.077218
551.690499
435.544180
216.267928
110.927623
-108.062271
-217.771952
-444.511573
-539.219557
-765.211541
-873.653958
-1104.219165
-1194.443328
1174.071260
1035.137308
855.373033
737.475363
522.909806
436.275055
209.287805
97.237970
-105.251286
-198.550145
-445.166491
-514.594508
-746.278242
-825.019766
-1076.386433
-1146.252126
1154.919171
958.427963
873.780893
691.896832
478.796751
429.356120
226.356289
78.610515
-118.048548
-176.890643
-410.878928
-541.820305
-741.804428
-741.565658
-1088.326037
-1086.383673
1124.377352
926.080668
866.903203
662.183360
468.808471
408.153303
218.209146
88.325630
-123.103954
-177.057635
-372.522322
-525.898697
-722.828993
-721.367560
-1069.873485
-1051.972032
1077.707251
902.502202
817.521192
651.588798
455.535230
395.497477
204.795754
77.276023
-110.225312
-167.693916
-378.931217
-497.109252
-680.020830
-719.900253
-1008.593205
-1020.819115
1044.108273
855.891485
793.175977
625.718799
430.222961
379.384349
212.118382
69.890932
-113.488831
-156.844907
-356.059133
-496.482329
-655.383634
-670.907131
-987.814421
-973.287193
1007.119113
824.305838
770.525438
599.052248
416.181088
367.874094
198.703467
70.086069
-106.895354
-155.935726
-340.324726
-467.105362
-640.008375
-648.081416
-955.322358
-939.644277
967.742210
787.754752
738.414100
579.425145
395.599392
353.149541
194.789512
61.187423
-101.414571
-142.867760
-335.322013
-453.675392
-608.114785
-624.231800
-913.833131
-899.920025
931.994098
751.405707
713.436519
552.386651
379.786529
336.822983
189.899586
63.206086
-104.965377
-137.178842
-311.624503
-441.356727
-585.709630
-588.784035
-888.053850
-859.915562
892.247661
718.628771
684.113537
530.018419
363.019701
326.017205
178.080506
56.714246
-95.161499
-132.904596
-303.935268
-414.807543
-562.959807
-568.077888
-847.097318
-824.606428
855.618497
680.203078
656.974569
505.804903
342.495638
310.101428
177.057288
52.330881
-94.147669
-121.467182
-289.531158
-405.600075
-535.836273
-535.351529
-815.517196
-783.243324
817.501971
647.644585
630.435300
480.105597
328.833443
296.067763
165.496924
53.682306
-92.836915
-118.202754
-271.756403
-384.391449
-514.156698
-509.070285
-781.768227
-747.023638
778.498533
612.169986
600.150568
458.575764
309.200246
283.308067
160.123241
44.066484
-84.798998
-109.883652
-263.297047
-366.314281
-487.924159
-483.254004
-743.352378
-708.476315
741.887891
575.871349
574.806507
432.024834
291.687277
267.850174
155.562105
45.144804
-85.718358
-101.821277
-245.039332
-352.579783
-464.323720
-451.482148
-713.021995
-669.300783
702.485848
543.563532
545.928374
408.685456
276.279187
255.316723
143.208336
41.023748
-80.205171
-97.611731
-233.125105
-330.596986
-441.051751
-427.651163
-674.705292
-633.003168
664.862935
506.430517
517.619680
385.242767
256.255856
240.240156
142.755294
33.846799
-75.930112
-87.875112
-219.126566
-317.562850
-414.780517
-397.485676
-641.308294
-593.102619
626.944982
473.101503
491.728021
358.634391
241.004548
227.309282
131.216686
36.973404
-75.772060
-82.087540
-203.841177
-297.088066
-392.826767
-369.998266
-606.856634
-556.444475
587.693570
438.725143
461.723622
337.046380
222.487865
213.158704
124.894635
26.625105
-68.636773
-76.132688
-191.940810
-281.089598
-367.557094
-343.634437
-569.609775
-517.941595
550.597412
402.560084
435.533675
310.500210
204.897926
198.651201
122.801405
26.607058
-67.375812
-66.607304
-174.800020
-265.150341
-342.953829
-313.301411
-537.815958
-479.507445
511.331507
370.368855
407.937995
286.227152
188.581551
187.056864
106.903204
25.525851
-65.239832
-61.654658
-164.517229
-243.340042
-321.144897
-288.296749
-499.157802
-443.089822
473.091342
334.249654
378.251058
264.032300
169.577160
169.739012
110.131971
12.848884
-57.814529
-54.659857
-146.986393
-233.101371
-293.952843
-258.397702
-466.420800
-403.195715
435.248588
300.433213
352.981059
235.712961
153.514569
160.039257
97.691373
21.672767
-59.022496
-45.328597
-133.876446
-208.341418
-272.946727
-230.930513
-430.758567
-367.254095
395.633653
266.930130
324.213069
213.636491
134.903225
144.452747
86.745446
9.359928
-54.353778
-41.065132
-122.807327
-195.716694
-248.170555
-204.657980
-393.246764
-328.609955
358.229297
231.798142
295.288711
189.751026
119.154883
127.376593
94.542030
4.162204
-47.652684
-33.525276
-100.764093
-179.796259
-221.803575
-174.620195
-361.693565
-290.452026
318.163395
200.250162
268.053606
162.390929
100.117663
122.954320
68.387947
13.978958
-50.147525
-24.291959
-97.731560
-152.194508
-203.559283
-149.345597
-320.980684
-255.145234
280.548157
162.198210
241.583187
138.843604
82.922494
98.787397
73.404689
-6.612996
-42.607768
-21.640917
-73.423199
-152.054821
-174.419794
-118.357404
-289.592407
-213.677818
241.859278
134.695203
212.391827
114.030488
69.878645
89.782106
67.352526
3.769940
-39.875828
-12.309088
-61.153611
-116.150675
-154.313345
-93.711017
-253.260963
-180.732428
198.058325
104.501545
175.844114
92.253159
51.101173
75.223420
44.990899
-5.965924
-32.471131
-16.210075
-57.229053
-104.457605
-131.167419
-71.414703
-206.371286
-143.938822
165.964020
53.240036
163.329129
54.139283
33.131129
65.152318
60.686208
-12.094464
-24.545169
-1.290644
-18.265109
-99.634676
-106.671407
-19.544456
-189.193450
-97.446746
126.810713
38.179962
143.809045
23.420819
18.568807
44.123907
17.590368
13.016459
-40.134790
2.969309
-30.851163
-50.098205
-102.273919
-13.135327
-145.013802
-73.187650
67.072192
51.315275
59.907091
20.304421
66.785403
-43.629088
48.759233
-39.866231
12.981249
-48.312016
13.073239
-72.255063
-31.780459
-44.776487
-69.061493
-49.494538
21.536693
14.460739
11.625810
6.288807
40.820008
-11.614750
40.353806
-11.643050
19.345862
-12.066382
21.941111
-20.079236
0.439005
-11.211054
-25.167333
-12.170666
