# vtk DataFile Version 2.0
cantilever_tri3_mix
ASCII
DATASET POLYDATA
POINTS 1105 float
0.000000 -6.000000 0.000000
48.000000 -6.000000 0.000000
48.000000 6.000000 0.000000
0.000000 6.000000 0.000000
0.750000 -6.000000 0.000000
1.500000 -6.000000 0.000000
2.250000 -6.000000 0.000000
3.000000 -6.000000 0.000000
3.750000 -6.000000 0.000000
4.500000 -6.000000 0.000000
5.250000 -6.000000 0.000000
6.000000 -6.000000 0.000000
6.750000 -6.000000 0.000000
7.500000 -6.000000 0.000000
8.250000 -6.000000 0.000000
9.000000 -6.000000 0.000000
9.750000 -6.000000 0.000000
10.500000 -6.000000 0.000000
11.250000 -6.000000 0.000000
12.000000 -6.000000 0.000000
12.750000 -6.000000 0.000000
13.500000 -6.000000 0.000000
14.250000 -6.000000 0.000000
15.000000 -6.000000 0.000000
15.750000 -6.000000 0.000000
16.500000 -6.000000 0.000000
17.250000 -6.000000 0.000000
18.000000 -6.000000 0.000000
18.750000 -6.000000 0.000000
19.500000 -6.000000 0.000000
20.250000 -6.000000 0.000000
21.000000 -6.000000 0.000000
21.750000 -6.000000 0.000000
22.500000 -6.000000 0.000000
23.250000 -6.000000 0.000000
24.000000 -6.000000 0.000000
24.750000 -6.000000 0.000000
25.500000 -6.000000 0.000000
26.250000 -6.000000 0.000000
27.000000 -6.000000 0.000000
27.750000 -6.000000 0.000000
28.500000 -6.000000 0.000000
29.250000 -6.000000 0.000000
30.000000 -6.000000 0.000000
30.750000 -6.000000 0.000000
31.500000 -6.000000 0.000000
32.250000 -6.000000 0.000000
33.000000 -6.000000 0.000000
33.750000 -6.000000 0.000000
34.500000 -6.000000 0.000000
35.250000 -6.000000 0.000000
36.000000 -6.000000 0.000000
36.750000 -6.000000 0.000000
37.500000 -6.000000 0.000000
38.250000 -6.000000 0.000000
39.000000 -6.000000 0.000000
39.750000 -6.000000 0.000000
40.500000 -6.000000 0.000000
41.250000 -6.000000 0.000000
42.000000 -6.000000 0.000000
42.750000 -6.000000 0.000000
43.500000 -6.000000 0.000000
44.250000 -6.000000 0.000000
45.000000 -6.000000 0.000000
45.750000 -6.000000 0.000000
46.500000 -6.000000 0.000000
47.250000 -6.000000 0.000000
48.000000 -5.250000 0.000000
48.000000 -4.500000 0.000000
48.000000 -3.750000 0.000000
48.000000 -3.000000 0.000000
48.000000 -2.250000 0.000000
48.000000 -1.500000 0.000000
48.000000 -0.750000 0.000000
48.000000 -0.000000 0.000000
48.000000 0.750000 0.000000
48.000000 1.500000 0.000000
48.000000 2.250000 0.000000
48.000000 3.000000 0.000000
48.000000 3.750000 0.000000
48.000000 4.500000 0.000000
48.000000 5.250000 0.000000
47.250000 6.000000 0.000000
46.500000 6.000000 0.000000
45.750000 6.000000 0.000000
45.000000 6.000000 0.000000
44.250000 6.000000 0.000000
43.500000 6.000000 0.000000
42.750000 6.000000 0.000000
42.000000 6.000000 0.000000
41.250000 6.000000 0.000000
40.500000 6.000000 0.000000
39.750000 6.000000 0.000000
39.000000 6.000000 0.000000
38.250000 6.000000 0.000000
37.500000 6.000000 0.000000
36.750000 6.000000 0.000000
36.000000 6.000000 0.000000
35.250000 6.000000 0.000000
34.500000 6.000000 0.000000
33.750000 6.000000 0.000000
33.000000 6.000000 0.000000
32.250000 6.000000 0.000000
31.500000 6.000000 0.000000
30.750000 6.000000 0.000000
30.000000 6.000000 0.000000
29.250000 6.000000 0.000000
28.500000 6.000000 0.000000
27.750000 6.000000 0.000000
27.000000 6.000000 0.000000
26.250000 6.000000 0.000000
25.500000 6.000000 0.000000
24.750000 6.000000 0.000000
24.000000 6.000000 0.000000
23.250000 6.000000 0.000000
22.500000 6.000000 0.000000
21.750000 6.000000 0.000000
21.000000 6.000000 0.000000
20.250000 6.000000 0.000000
19.500000 6.000000 0.000000
18.750000 6.000000 0.000000
18.000000 6.000000 0.000000
17.250000 6.000000 0.000000
16.500000 6.000000 0.000000
15.750000 6.000000 0.000000
15.000000 6.000000 0.000000
14.250000 6.000000 0.000000
13.500000 6.000000 0.000000
12.750000 6.000000 0.000000
12.000000 6.000000 0.000000
11.250000 6.000000 0.000000
10.500000 6.000000 0.000000
9.750000 6.000000 0.000000
9.000000 6.000000 0.000000
8.250000 6.000000 0.000000
7.500000 6.000000 0.000000
6.750000 6.000000 0.000000
6.000000 6.000000 0.000000
5.250000 6.000000 0.000000
4.500000 6.000000 0.000000
3.750000 6.000000 0.000000
3.000000 6.000000 0.000000
2.250000 6.000000 0.000000
1.500000 6.000000 0.000000
0.750000 6.000000 0.000000
0.000000 5.250000 0.000000
0.000000 4.500000 0.000000
0.000000 3.750000 0.000000
0.000000 3.000000 0.000000
0.000000 2.250000 0.000000
0.000000 1.500000 0.000000
0.000000 0.750000 0.000000
0.000000 0.000000 0.000000
0.000000 -0.750000 0.000000
0.000000 -1.500000 0.000000
0.000000 -2.250000 0.000000
0.000000 -3.000000 0.000000
0.000000 -3.750000 0.000000
0.000000 -4.500000 0.000000
0.000000 -5.250000 0.000000
0.750000 -5.250000 0.000000
0.750000 -4.500000 0.000000
0.750000 -3.750000 0.000000
0.750000 -3.000000 0.000000
0.750000 -2.250000 0.000000
0.750000 -1.500000 0.000000
0.750000 -0.750000 0.000000
0.750000 0.000000 0.000000
0.750000 0.750000 0.000000
0.750000 1.500000 0.000000
0.750000 2.250000 0.000000
0.750000 3.000000 0.000000
0.750000 3.750000 0.000000
0.750000 4.500000 0.000000
0.750000 5.250000 0.000000
1.500000 -5.250000 0.000000
1.500000 -4.500000 0.000000
1.500000 -3.750000 0.000000
1.500000 -3.000000 0.000000
1.500000 -2.250000 0.000000
1.500000 -1.500000 0.000000
1.500000 -0.750000 0.000000
1.500000 0.000000 0.000000
1.500000 0.750000 0.000000
1.500000 1.500000 0.000000
1.500000 2.250000 0.000000
1.500000 3.000000 0.000000
1.500000 3.750000 0.000000
1.500000 4.500000 0.000000
1.500000 5.250000 0.000000
2.250000 -5.250000 0.000000
2.250000 -4.500000 0.000000
2.250000 -3.750000 0.000000
2.250000 -3.000000 0.000000
2.250000 -2.250000 0.000000
2.250000 -1.500000 0.000000
2.250000 -0.750000 0.000000
2.250000 0.000000 0.000000
2.250000 0.750000 0.000000
2.250000 1.500000 0.000000
2.250000 2.250000 0.000000
2.250000 3.000000 0.000000
2.250000 3.750000 0.000000
2.250000 4.500000 0.000000
2.250000 5.250000 0.000000
3.000000 -5.250000 0.000000
3.000000 -4.500000 0.000000
3.000000 -3.750000 0.000000
3.000000 -3.000000 0.000000
3.000000 -2.250000 0.000000
3.000000 -1.500000 0.000000
3.000000 -0.750000 0.000000
3.000000 0.000000 0.000000
3.000000 0.750000 0.000000
3.000000 1.500000 0.000000
3.000000 2.250000 0.000000
3.000000 3.000000 0.000000
3.000000 3.750000 0.000000
3.000000 4.500000 0.000000
3.000000 5.250000 0.000000
3.750000 -5.250000 0.000000
3.750000 -4.500000 0.000000
3.750000 -3.750000 0.000000
3.750000 -3.000000 0.000000
3.750000 -2.250000 0.000000
3.750000 -1.500000 0.000000
3.750000 -0.750000 0.000000
3.750000 0.000000 0.000000
3.750000 0.750000 0.000000
3.750000 1.500000 0.000000
3.750000 2.250000 0.000000
3.750000 3.000000 0.000000
3.750000 3.750000 0.000000
3.750000 4.500000 0.000000
3.750000 5.250000 0.000000
4.500000 -5.250000 0.000000
4.500000 -4.500000 0.000000
4.500000 -3.750000 0.000000
4.500000 -3.000000 0.000000
4.500000 -2.250000 0.000000
4.500000 -1.500000 0.000000
4.500000 -0.750000 0.000000
4.500000 0.000000 0.000000
4.500000 0.750000 0.000000
4.500000 1.500000 0.000000
4.500000 2.250000 0.000000
4.500000 3.000000 0.000000
4.500000 3.750000 0.000000
4.500000 4.500000 0.000000
4.500000 5.250000 0.000000
5.250000 -5.250000 0.000000
5.250000 -4.500000 0.000000
5.250000 -3.750000 0.000000
5.250000 -3.000000 0.000000
5.250000 -2.250000 0.000000
5.250000 -1.500000 0.000000
5.250000 -0.750000 0.000000
5.250000 0.000000 0.000000
5.250000 0.750000 0.000000
5.250000 1.500000 0.000000
5.250000 2.250000 0.000000
5.250000 3.000000 0.000000
5.250000 3.750000 0.000000
5.250000 4.500000 0.000000
5.250000 5.250000 0.000000
6.000000 -5.250000 0.000000
6.000000 -4.500000 0.000000
6.000000 -3.750000 0.000000
6.000000 -3.000000 0.000000
6.000000 -2.250000 0.000000
6.000000 -1.500000 0.000000
6.000000 -0.750000 0.000000
6.000000 0.000000 0.000000
6.000000 0.750000 0.000000
6.000000 1.500000 0.000000
6.000000 2.250000 0.000000
6.000000 3.000000 0.000000
6.000000 3.750000 0.000000
6.000000 4.500000 0.000000
6.000000 5.250000 0.000000
6.750000 -5.250000 0.000000
6.750000 -4.500000 0.000000
6.750000 -3.750000 0.000000
6.750000 -3.000000 0.000000
6.750000 -2.250000 0.000000
6.750000 -1.500000 0.000000
6.750000 -0.750000 0.000000
6.750000 0.000000 0.000000
6.750000 0.750000 0.000000
6.750000 1.500000 0.000000
6.750000 2.250000 0.000000
6.750000 3.000000 0.000000
6.750000 3.750000 0.000000
6.750000 4.500000 0.000000
6.750000 5.250000 0.000000
7.500000 -5.250000 0.000000
7.500000 -4.500000 0.000000
7.500000 -3.750000 0.000000
7.500000 -3.000000 0.000000
7.500000 -2.250000 0.000000
7.500000 -1.500000 0.000000
7.500000 -0.750000 0.000000
7.500000 0.000000 0.000000
7.500000 0.750000 0.000000
7.500000 1.500000 0.000000
7.500000 2.250000 0.000000
7.500000 3.000000 0.000000
7.500000 3.750000 0.000000
7.500000 4.500000 0.000000
7.500000 5.250000 0.000000
8.250000 -5.250000 0.000000
8.250000 -4.500000 0.000000
8.250000 -3.750000 0.000000
8.250000 -3.000000 0.000000
8.250000 -2.250000 0.000000
8.250000 -1.500000 0.000000
8.250000 -0.750000 0.000000
8.250000 0.000000 0.000000
8.250000 0.750000 0.000000
8.250000 1.500000 0.000000
8.250000 2.250000 0.000000
8.250000 3.000000 0.000000
8.250000 3.750000 0.000000
8.250000 4.500000 0.000000
8.250000 5.250000 0.000000
9.000000 -5.250000 0.000000
9.000000 -4.500000 0.000000
9.000000 -3.750000 0.000000
9.000000 -3.000000 0.000000
9.000000 -2.250000 0.000000
9.000000 -1.500000 0.000000
9.000000 -0.750000 0.000000
9.000000 0.000000 0.000000
9.000000 0.750000 0.000000
9.000000 1.500000 0.000000
9.000000 2.250000 0.000000
9.000000 3.000000 0.000000
9.000000 3.750000 0.000000
9.000000 4.500000 0.000000
9.000000 5.250000 0.000000
9.750000 -5.250000 0.000000
9.750000 -4.500000 0.000000
9.750000 -3.750000 0.000000
9.750000 -3.000000 0.000000
9.750000 -2.250000 0.000000
9.750000 -1.500000 0.000000
9.750000 -0.750000 0.000000
9.750000 0.000000 0.000000
9.750000 0.750000 0.000000
9.750000 1.500000 0.000000
9.750000 2.250000 0.000000
9.750000 3.000000 0.000000
9.750000 3.750000 0.000000
9.750000 4.500000 0.000000
9.750000 5.250000 0.000000
10.500000 -5.250000 0.000000
[...]
POINT_DATA 1105
VECTORS U float
0.000000 0.001407 0.000000
0.012239 0.068485 0.000000
-0.011771 0.068424 0.000000
0.000001 0.001570 0.000000
0.000357 0.001524 0.000000
0.000711 0.001692 0.000000
0.001054 0.001750 0.000000
0.001390 0.002215 0.000000
0.001728 0.002292 0.000000
0.002066 0.002621 0.000000
0.002408 0.003026 0.000000
0.002761 0.003328 0.000000
0.003121 0.003719 0.000000
0.003478 0.004427 0.000000
0.003830 0.004795 0.000000
0.004192 0.005228 0.000000
0.004569 0.006186 0.000000
0.004962 0.006737 0.000000
0.005343 0.007423 0.000000
0.005689 0.007902 0.000000
0.006008 0.008782 0.000000
0.006298 0.009473 0.000000
0.006559 0.010169 0.000000
0.006789 0.010834 0.000000
0.007012 0.011772 0.000000
0.007232 0.012596 0.000000
0.007443 0.013533 0.000000
0.007650 0.014489 0.000000
0.007855 0.015481 0.000000
0.008066 0.016374 0.000000
0.008282 0.017395 0.000000
0.008499 0.018468 0.000000
0.008718 0.019518 0.000000
0.008937 0.020609 0.000000
0.009150 0.021732 0.000000
0.009352 0.022873 0.000000
0.009544 0.024056 0.000000
0.009729 0.025248 0.000000
0.009904 0.026479 0.000000
0.010068 0.027710 0.000000
0.010220 0.028987 0.000000
0.010360 0.030292 0.000000
0.010490 0.031605 0.000000
0.010611 0.032942 0.000000
0.010726 0.034297 0.000000
0.010836 0.035671 0.000000
0.010945 0.037060 0.000000
0.011052 0.038466 0.000000
0.011158 0.039879 0.000000
0.011260 0.041304 0.000000
0.011356 0.042740 0.000000
0.011447 0.044190 0.000000
0.011534 0.045658 0.000000
0.011618 0.047133 0.000000
0.011698 0.048617 0.000000
0.011772 0.050110 0.000000
0.011841 0.051610 0.000000
0.011905 0.053120 0.000000
0.011963 0.054636 0.000000
0.012016 0.056158 0.000000
0.012064 0.057686 0.000000
0.012106 0.059219 0.000000
0.012142 0.060757 0.000000
0.012173 0.062298 0.000000
0.012198 0.063842 0.000000
0.012218 0.065388 0.000000
0.012231 0.066936 0.000000
0.010707 0.068480 0.000000
0.009179 0.068476 0.000000
0.007662 0.068471 0.000000
0.006156 0.068467 0.000000
0.004653 0.068462 0.000000
0.003154 0.068458 0.000000
0.001665 0.068454 0.000000
0.000186 0.068449 0.000000
-0.001290 0.068446 0.000000
-0.002763 0.068442 0.000000
-0.004239 0.068438 0.000000
-0.005727 0.068435 0.000000
-0.007233 0.068432 0.000000
-0.008747 0.068429 0.000000
-0.010255 0.068427 0.000000
-0.011770 0.066879 0.000000
-0.011763 0.065335 0.000000
-0.011750 0.063792 0.000000
-0.011731 0.062251 0.000000
-0.011706 0.060714 0.000000
-0.011675 0.059181 0.000000
-0.011637 0.057652 0.000000
-0.011594 0.056128 0.000000
-0.011545 0.054611 0.000000
-0.011489 0.053102 0.000000
-0.011428 0.051598 0.000000
-0.011360 0.050105 0.000000
-0.011286 0.048621 0.000000
-0.011206 0.047146 0.000000
-0.011120 0.045683 0.000000
-0.011027 0.044227 0.000000
-0.010927 0.042788 0.000000
-0.010821 0.041363 0.000000
-0.010707 0.039948 0.000000
-0.010587 0.038548 0.000000
-0.010460 0.037157 0.000000
-0.010327 0.035786 0.000000
-0.010187 0.034431 0.000000
-0.010041 0.033091 0.000000
-0.009889 0.031770 0.000000
-0.009731 0.030473 0.000000
-0.009567 0.029182 0.000000
-0.009398 0.027916 0.000000
-0.009222 0.026691 0.000000
-0.009037 0.025461 0.000000
-0.008841 0.024267 0.000000
-0.008634 0.023071 0.000000
-0.008418 0.021915 0.000000
-0.008195 0.020776 0.000000
-0.007969 0.019655 0.000000
-0.007743 0.018563 0.000000
-0.007518 0.017451 0.000000
-0.007294 0.016385 0.000000
-0.007068 0.015439 0.000000
-0.006842 0.014391 0.000000
-0.006614 0.013377 0.000000
-0.006385 0.012398 0.000000
-0.006158 0.011540 0.000000
-0.005932 0.010568 0.000000
-0.005709 0.009837 0.000000
-0.005485 0.009019 0.000000
-0.005254 0.008238 0.000000
-0.005015 0.007322 0.000000
-0.004771 0.006780 0.000000
-0.004524 0.006051 0.000000
-0.004269 0.005556 0.000000
-0.003997 0.004772 0.000000
-0.003703 0.004552 0.000000
-0.003394 0.004276 0.000000
-0.003075 0.003633 0.000000
-0.002753 0.003283 0.000000
-0.002427 0.002965 0.000000
-0.002098 0.002527 0.000000
-0.001765 0.002194 0.000000
-0.001427 0.002140 0.000000
-0.001085 0.001726 0.000000
-0.000735 0.001740 0.000000
-0.000373 0.001631 0.000000
0.000038 0.001210 0.000000
0.000061 0.000884 0.000000
0.000071 0.000600 0.000000
0.000071 0.000375 0.000000
0.000060 0.000209 0.000000
0.000044 0.000089 0.000000
0.000023 0.000019 0.000000
0.000000 0.000003 0.000000
-0.000023 0.000036 0.000000
-0.000044 0.000110 0.000000
-0.000060 0.000222 0.000000
-0.000071 0.000367 0.000000
-0.000071 0.000553 0.000000
-0.000061 0.000789 0.000000
-0.000039 0.001073 0.000000
0.000270 0.001193 0.000000
0.000200 0.000907 0.000000
0.000144 0.000665 0.000000
0.000100 0.000467 0.000000
0.000070 0.000313 0.000000
0.000048 0.000201 0.000000
0.000028 0.000131 0.000000
0.000006 0.000106 0.000000
-0.000021 0.000126 0.000000
-0.000052 0.000196 0.000000
-0.000082 0.000314 0.000000
-0.000123 0.000482 0.000000
-0.000179 0.000702 0.000000
-0.000238 0.000970 0.000000
-0.000298 0.001282 0.000000
0.000577 0.001364 0.000000
0.000467 0.001075 0.000000
0.000369 0.000825 0.000000
0.000281 0.000617 0.000000
0.000205 0.000456 0.000000
0.000138 0.000343 0.000000
0.000074 0.000276 0.000000
0.000007 0.000255 0.000000
-0.000066 0.000278 0.000000
-0.000144 0.000346 0.000000
-0.000225 0.000463 0.000000
-0.000316 0.000631 0.000000
-0.000420 0.000845 0.000000
-0.000523 0.001103 0.000000
-0.000623 0.001402 0.000000
0.000885 0.001427 0.000000
0.000740 0.001134 0.000000
0.000602 0.000878 0.000000
0.000470 0.000664 0.000000
0.000344 0.000496 0.000000
0.000229 0.000379 0.000000
0.000119 0.000309 0.000000
0.000007 0.000286 0.000000
-0.000111 0.000306 0.000000
-0.000235 0.000373 0.000000
-0.000368 0.000489 0.000000
-0.000505 0.000653 0.000000
-0.000653 0.000862 0.000000
-0.000796 0.001112 0.000000
-0.000936 0.001400 0.000000
0.001194 0.001892 0.000000
0.001015 0.001601 0.000000
0.000839 0.001345 0.000000
0.000665 0.001127 0.000000
0.000488 0.000956 0.000000
0.000323 0.000838 0.000000
0.000167 0.000765 0.000000
0.000012 0.000736 0.000000
-0.000154 0.000756 0.000000
-0.000327 0.000825 0.000000
-0.000506 0.000939 0.000000
-0.000689 0.001098 0.000000
-0.000879 0.001299 0.000000
-0.001061 0.001540 0.000000
-0.001239 0.001820 0.000000
0.001499 0.001971 0.000000
0.001288 0.001683 0.000000
0.001077 0.001429 0.000000
0.000858 0.001216 0.000000
0.000633 0.001047 0.000000
0.000423 0.000921 0.000000
0.000221 0.000839 0.000000
0.000017 0.000809 0.000000
-0.000198 0.000830 0.000000
-0.000420 0.000898 0.000000
-0.000641 0.001012 0.000000
-0.000868 0.001168 0.000000
-0.001097 0.001367 0.000000
-0.001319 0.001603 0.000000
-0.001537 0.001878 0.000000
0.001803 0.002300 0.000000
0.001558 0.002014 0.000000
0.001310 0.001763 0.000000
0.001048 0.001553 0.000000
0.000781 0.001383 0.000000
0.000528 0.001257 0.000000
0.000275 0.001180 0.000000
0.000019 0.001155 0.000000
-0.000244 0.001179 0.000000
-0.000510 0.001246 0.000000
-0.000775 0.001356 0.000000
-0.001045 0.001511 0.000000
-0.001314 0.001707 0.000000
-0.001573 0.001942 0.000000
-0.001831 0.002215 0.000000
0.002108 0.002699 0.000000
0.001824 0.002414 0.000000
0.001539 0.002169 0.000000
0.001237 0.001963 0.000000
0.000928 0.001798 0.000000
0.000626 0.001679 0.000000
0.000320 0.001613 0.000000
0.000016 0.001596 0.000000
-0.000292 0.001624 0.000000
-0.000599 0.001695 0.000000
-0.000907 0.001806 0.000000
-0.001220 0.001958 0.000000
-0.001529 0.002151 0.000000
-0.001828 0.002385 0.000000
-0.002121 0.002657 0.000000
0.002417 0.002992 0.000000
0.002089 0.002703 0.000000
0.001760 0.002461 0.000000
0.001418 0.002262 0.000000
0.001065 0.002109 0.000000
0.000711 0.002005 0.000000
0.000358 0.001947 0.000000
0.000008 0.001934 0.000000
-0.000341 0.001963 0.000000
-0.000690 0.002033 0.000000
-0.001038 0.002143 0.000000
-0.001390 0.002292 0.000000
-0.001740 0.002480 0.000000
-0.002080 0.002709 0.000000
-0.002409 0.002977 0.000000
0.002732 0.003381 0.000000
0.002356 0.003088 0.000000
0.001983 0.002838 0.000000
0.001594 0.002637 0.000000
0.001191 0.002487 0.000000
0.000789 0.002385 0.000000
0.000393 0.002330 0.000000
0.000001 0.002315 0.000000
-0.000390 0.002342 0.000000
-0.000779 0.002409 0.000000
-0.001165 0.002515 0.000000
-0.001556 0.002658 0.000000
-0.001946 0.002842 0.000000
-0.002327 0.003065 0.000000
-0.002695 0.003330 0.000000
0.003048 0.004094 0.000000
0.002632 0.003797 0.000000
0.002212 0.003543 0.000000
0.001774 0.003334 0.000000
0.001320 0.003176 0.000000
0.000868 0.003071 0.000000
0.000427 0.003015 0.000000
-0.000007 0.003003 0.000000
-0.000437 0.003030 0.000000
-0.000864 0.003095 0.000000
-0.001287 0.003196 0.000000
-0.001717 0.003335 0.000000
-0.002145 0.003510 0.000000
-0.002568 0.003725 0.000000
-0.002976 0.003981 0.000000
0.003363 0.004459 0.000000
0.002906 0.004164 0.000000
0.002442 0.003911 0.000000
0.001958 0.003704 0.000000
0.001453 0.003545 0.000000
0.000950 0.003434 0.000000
0.000462 0.003373 0.000000
-0.000014 0.003357 0.000000
-0.000481 0.003380 0.000000
-0.000944 0.003438 0.000000
-0.001404 0.003533 0.000000
-0.001868 0.003662 0.000000
-0.002334 0.003827 0.000000
-0.002796 0.004028 0.000000
-0.003246 0.004269 0.000000
0.003684 0.004880 0.000000
0.003191 0.004568 0.000000
0.002677 0.004303 0.000000
0.002141 0.004092 0.000000
0.001591 0.003930 0.000000
0.001042 0.003811 0.000000
0.000506 0.003736 0.000000
-0.000010 0.003704 0.000000
-0.000513 0.003708 0.000000
-0.001016 0.003754 0.000000
-0.001509 0.003835 0.000000
-0.002006 0.003950 0.000000
-0.002509 0.004098 0.000000
-0.003009 0.004285 0.000000
-0.003498 0.004510 0.000000
0.004019 0.005822 0.000000
0.003482 0.005508 0.000000
0.002914 0.005247 0.000000
0.002327 0.005038 0.000000
0.001731 0.004875 0.000000
0.001141 0.004756 0.000000
0.000568 0.004670 0.000000
0.000015 0.004615 0.000000
-0.000531 0.004605 0.000000
-0.001070 0.004633 0.000000
-0.001599 0.004696 0.000000
-0.002130 0.004795 0.000000
-0.002668 0.004930 0.000000
-0.003207 0.005101 0.000000
-0.003734 0.005311 0.000000
0.004356 0.006373 0.000000
0.003763 0.006071 0.000000
0.003144 0.005822 0.000000
0.002510 0.005621 0.000000
0.001872 0.005461 0.000000
0.001245 0.005338 0.000000
0.000641 0.005249 0.000000
0.000050 0.005196 0.000000
-0.000534 0.005176 0.000000
-0.001109 0.005192 0.000000
-0.001674 0.005243 0.000000
-0.002243 0.005332 0.000000
-0.002816 0.005459 0.000000
-0.003392 0.005621 0.000000
-0.003955 0.005819 0.000000
0.004680 0.007087 0.000000
0.004029 0.006802 0.000000
0.003359 0.006571 0.000000
0.002686 0.006380 0.000000
0.002014 0.006222 0.000000
0.001352 0.006098 0.000000
0.000711 0.006010 0.000000
0.000085 0.005959 0.000000
-0.000531 0.005940 0.000000
-0.001140 0.005954 0.000000
-0.001742 0.006003 0.000000
-0.002347 0.006086 0.000000
-0.002957 0.006206 0.000000
-0.003568 0.006361 0.000000
-0.004167 0.006553 0.000000
0.004976 0.007595 0.000000
0.004274 0.007337 0.000000
0.003567 0.007115 0.000000
0.002859 0.006927 0.000000
0.002153 0.006772 0.000000
0.001456 0.006653 0.000000
0.000780 0.006567 0.000000
0.000120 0.006514 0.000000
-0.000529 0.006497 0.000000
-0.001173 0.006514 0.000000
-0.001808 0.006565 0.000000
-0.002446 0.006646 0.000000
-0.003092 0.006761 0.000000
-0.003739 0.006911 0.000000
-0.004375 0.007098 0.000000
0.005252 0.008494 0.000000
0.004511 0.008240 0.000000
0.003769 0.008025 0.000000
0.003028 0.007843 0.000000
0.002288 0.007695 0.000000
0.001556 0.007580 0.000000
0.000847 0.007499 0.000000
0.000153 0.007450 0.000000
-0.000531 0.007435 0.000000
-0.001207 0.007453 0.000000
-0.001873 0.007502 0.000000
-0.002542 0.007582 0.000000
-0.003222 0.007693 0.000000
-0.003906 0.007839 0.000000
-0.004578 0.008021 0.000000
0.005513 0.009210 0.000000
0.004736 0.008980 0.000000
0.003960 0.008780 0.000000
0.003188 0.008611 0.000000
0.002415 0.008472 0.000000
0.001652 0.008362 0.000000
0.000910 0.008285 0.000000
0.000184 0.008240 0.000000
-0.000534 0.008228 0.000000
-0.001239 0.008245 0.000000
-0.001937 0.008293 0.000000
-0.002638 0.008373 0.000000
-0.003351 0.008486 0.000000
-0.004068 0.008632 0.000000
-0.004774 0.008809 0.000000
0.005744 0.009941 0.000000
0.004940 0.009736 0.000000
0.004137 0.009555 0.000000
0.003336 0.009399 0.000000
0.002536 0.009269 0.000000
0.001744 0.009166 0.000000
0.000971 0.009091 0.000000
0.000211 0.009048 0.000000
-0.000537 0.009037 0.000000
-0.001273 0.009057 0.000000
-0.002003 0.009109 0.000000
-0.002736 0.009192 0.000000
-0.003481 0.009307 0.000000
-0.004229 0.009453 0.000000
-0.004966 0.009630 0.000000
0.005951 0.010621 0.000000
0.005124 0.010432 0.000000
0.004298 0.010268 0.000000
0.003474 0.010124 0.000000
0.002651 0.010001 0.000000
0.001831 0.009901 0.000000
0.001029 0.009829 0.000000
0.000239 0.009786 0.000000
-0.000540 0.009772 0.000000
-0.001309 0.009790 0.000000
-0.002070 0.009841 0.000000
-0.002835 0.009924 0.000000
-0.003611 0.010037 0.000000
-0.004391 0.010182 0.000000
-0.005158 0.010359 0.000000
0.006149 0.011563 0.000000
0.005296 0.011381 0.000000
0.004447 0.011222 0.000000
0.003604 0.011086 0.000000
0.002759 0.010971 0.000000
0.001916 0.010877 0.000000
0.001086 0.010807 0.000000
0.000268 0.010766 0.000000
-0.000542 0.010752 0.000000
-0.001342 0.010767 0.000000
-0.002135 0.010815 0.000000
-0.002932 0.010895 0.000000
-0.003740 0.011007 0.000000
-0.004552 0.011152 0.000000
-0.005351 0.011330 0.000000
0.006342 0.012393 0.000000
0.005465 0.012213 0.000000
0.004593 0.012057 0.000000
0.003729 0.011922 0.000000
0.002862 0.011811 0.000000
0.001995 0.011723 0.000000
0.001140 0.011658 0.000000
0.000296 0.011617 0.000000
-0.000541 0.011601 0.000000
-0.001372 0.011616 0.000000
-0.002199 0.011663 0.000000
-0.003029 0.011745 0.000000
-0.003870 0.011859 0.000000
-0.004714 0.012006 0.000000
-0.005546 0.012186 0.000000
0.006532 0.013335 0.000000
0.005631 0.013159 0.000000
0.004737 0.013005 0.000000
0.003850 0.012874 0.000000
0.002960 0.012765 0.000000
0.002071 0.012678 0.000000
0.001192 0.012616 0.000000
0.000323 0.012578 0.000000
-0.000542 0.012568 0.000000
-0.001405 0.012587 0.000000
-0.002264 0.012638 0.000000
-0.003128 0.012721 0.000000
-0.004001 0.012837 0.000000
-0.004878 0.012985 0.000000
-0.005743 0.013165 0.000000
0.006717 0.014294 0.000000
0.005794 0.014120 0.000000
0.004879 0.013968 0.000000
0.003970 0.013838 0.000000
0.003057 0.013730 0.000000
0.002143 0.013647 0.000000
0.001239 0.013590 0.000000
0.000343 0.013562 0.000000
-0.000551 0.013562 0.000000
-0.001443 0.013591 0.000000
-0.002333 0.013647 0.000000
-0.003228 0.013733 0.000000
-0.004133 0.013850 0.000000
-0.005042 0.013998 0.000000
-0.005939 0.014179 0.000000
0.006902 0.015284 0.000000
0.005957 0.015109 0.000000
0.005020 0.014957 0.000000
0.004088 0.014828 0.000000
0.003151 0.014725 0.000000
0.002210 0.014648 0.000000
0.001278 0.014598 0.000000
0.000352 0.014579 0.000000
-0.000570 0.014589 0.000000
-0.001488 0.014624 0.000000
-0.002406 0.014688 0.000000
-0.003331 0.014778 0.000000
-0.004267 0.014899 0.000000
-0.005207 0.015048 0.000000
-0.006135 0.015228 0.000000
0.007090 0.016173 0.000000
0.006121 0.015996 0.000000
0.005160 0.015844 0.000000
0.004202 0.015719 0.000000
0.003238 0.015622 0.000000
0.002269 0.015553 0.000000
0.001308 0.015513 0.000000
0.000354 0.015499 0.000000
-0.000596 0.015514 0.000000
-0.001541 0.015556 0.000000
-0.002486 0.015625 0.000000
-0.003439 0.015722 0.000000
-0.004403 0.015845 0.000000
-0.005372 0.015995 0.000000
-0.006330 0.016175 0.000000
0.007280 0.017192 0.000000
0.006285 0.017015 0.000000
0.005297 0.016866 0.000000
0.004310 0.016747 0.000000
0.003318 0.016656 0.000000
0.002321 0.016592 0.000000
0.001333 0.016556 0.000000
0.000351 0.016547 0.000000
-0.000626 0.016566 0.000000
-0.001599 0.016611 0.000000
-0.002571 0.016683 0.000000
-0.003550 0.016782 0.000000
-0.004541 0.016908 0.000000
-0.005537 0.017061 0.000000
-0.006525 0.017241 0.000000
0.007470 0.018264 0.000000
0.006446 0.018090 0.000000
0.005428 0.017946 0.000000
0.004413 0.017831 0.000000
0.003392 0.017745 0.000000
0.002368 0.017687 0.000000
0.001353 0.017654 0.000000
0.000345 0.017649 0.000000
-0.000659 0.017669 0.000000
-0.001658 0.017715 0.000000
-0.002657 0.017788 0.000000
-0.003663 0.017888 0.000000
-0.004681 0.018015 0.000000
-0.005705 0.018170 0.000000
-0.006720 0.018352 0.000000
0.007658 0.019315 0.000000
0.006603 0.019144 0.000000
0.005555 0.019004 0.000000
0.004510 0.018894 0.000000
0.003462 0.018814 0.000000
0.002411 0.018760 0.000000
0.001370 0.018733 0.000000
0.000336 0.018731 0.000000
-0.000693 0.018754 0.000000
-0.001718 0.018803 0.000000
-0.002743 0.018877 0.000000
-0.003777 0.018977 0.000000
-0.004822 0.019104 0.000000
-0.005874 0.019260 0.000000
-0.006917 0.019443 0.000000
0.007845 0.020409 0.000000
0.006757 0.020241 0.000000
0.005677 0.020106 0.000000
0.004602 0.020002 0.000000
0.003527 0.019925 0.000000
0.002450 0.019876 0.000000
0.001382 0.019852 0.000000
0.000324 0.019852 0.000000
-0.000730 0.019878 0.000000
-0.001780 0.019927 0.000000
-0.002830 0.020001 0.000000
-0.003890 0.020101 0.000000
-0.004963 0.020228 0.000000
-0.006043 0.020382 0.000000
-0.007115 0.020565 0.000000
0.008025 0.021540 0.000000
0.006905 0.021379 0.000000
0.005794 0.021248 0.000000
0.004691 0.021147 0.000000
0.003588 0.021074 0.000000
0.002486 0.021026 0.000000
0.001393 0.021003 0.000000
0.000310 0.021005 0.000000
-0.000768 0.021032 0.000000
-0.001841 0.021081 0.000000
-0.002917 0.021155 0.000000
-0.004003 0.021254 0.000000
-0.005102 0.021378 0.000000
-0.006210 0.021530 0.000000
-0.007310 0.021709 0.000000
0.008198 0.022690 0.000000
0.007048 0.022537 0.000000
0.005907 0.022412 0.000000
0.004775 0.022316 0.000000
0.003646 0.022247 0.000000
0.002519 0.022203 0.000000
0.001403 0.022183 0.000000
0.000296 0.022186 0.000000
-0.000805 0.022211 0.000000
-0.001903 0.022261 0.000000
-0.003003 0.022334 0.000000
-0.004113 0.022431 0.000000
-0.005238 0.022552 0.000000
-0.006373 0.022699 0.000000
-0.007500 0.022872 0.000000
0.008362 0.023881 0.000000
0.007184 0.023735 0.000000
0.006014 0.023617 0.000000
0.004855 0.023526 0.000000
0.003700 0.023462 0.000000
0.002549 0.023422 0.000000
0.001410 0.023405 0.000000
0.000281 0.023410 0.000000
-0.000843 0.023437 0.000000
-0.001964 0.023486 0.000000
-0.003087 0.023558 0.000000
-0.004220 0.023652 0.000000
-0.005370 0.023770 0.000000
-0.006529 0.023912 0.000000
-0.007682 0.024077 0.000000
0.008519 0.025081 0.000000
0.007313 0.024941 0.000000
0.006116 0.024828 0.000000
0.004931 0.024742 0.000000
0.003751 0.024680 0.000000
0.002576 0.024642 0.000000
0.001415 0.024627 0.000000
0.000264 0.024634 0.000000
-0.000882 0.024662 0.000000
-0.002024 0.024712 0.000000
-0.003169 0.024782 0.000000
-0.004325 0.024873 0.000000
-0.005498 0.024988 0.000000
-0.006679 0.025124 0.000000
-0.007855 0.025282 0.000000
0.008668 0.026322 0.000000
0.007436 0.026190 0.000000
0.006213 0.026083 0.000000
0.005003 0.026000 0.000000
0.003800 0.025940 0.000000
0.002602 0.025904 0.000000
0.001418 0.025890 0.000000
0.000246 0.025897 0.000000
-0.000921 0.025925 0.000000
-0.002083 0.025974 0.000000
-0.003248 0.026042 0.000000
-0.004426 0.026131 0.000000
-0.005620 0.026241 0.000000
-0.006823 0.026371 0.000000
-0.008019 0.026521 0.000000
0.008809 0.027563 0.000000
0.007552 0.027439 0.000000
0.006306 0.027338 0.000000
0.005073 0.027258 0.000000
0.003847 0.027201 0.000000
0.002627 0.027165 0.000000
0.001422 0.027150 0.000000
0.000229 0.027156 0.000000
-0.000958 0.027182 0.000000
-0.002140 0.027229 0.000000
-0.003326 0.027295 0.000000
-0.004523 0.027380 0.000000
-0.005738 0.027485 0.000000
-0.006960 0.027609 0.000000
-0.008175 0.027753 0.000000
0.008939 0.028851 0.000000
0.007661 0.028736 0.000000
0.006394 0.028640 0.000000
0.005140 0.028564 0.000000
0.003893 0.028507 0.000000
0.002653 0.028471 0.000000
0.001427 0.028455 0.000000
0.000214 0.028458 0.000000
-0.000993 0.028482 0.000000
-0.002195 0.028525 0.000000
-0.003399 0.028587 0.000000
-0.004616 0.028668 0.000000
-0.005849 0.028768 0.000000
-0.007091 0.028887 0.000000
-0.008326 0.029025 0.000000
0.009060 0.030166 0.000000
0.007763 0.030059 0.000000
0.006478 0.029968 0.000000
0.005205 0.029896 0.000000
0.003940 0.029841 0.000000
0.002680 0.029804 0.000000
0.001435 0.029785 0.000000
0.000202 0.029786 0.000000
-0.001025 0.029806 0.000000
-0.002246 0.029845 0.000000
-0.003469 0.029903 0.000000