# vtk DataFile Version 2.0
cantilever_tri3_mix
ASCII
DATASET POLYDATA
POINTS 1105 float
0.000000 -6.000000 0.000000
48.000000 -6.000000 0.000000
48.000000 6.000000 0.000000
0.000000 6.000000 0.000000
0.750000 -6.000000 0.000000
1.500000 -6.000000 0.000000
2.250000 -6.000000 0.000000
3.000000 -6.000000 0.000000
3.750000 -6.000000 0.000000
4.500000 -6.000000 0.000000
5.250000 -6.000000 0.000000
6.000000 -6.000000 0.000000
6.750000 -6.000000 0.000000
7.500000 -6.000000 0.000000
8.250000 -6.000000 0.000000
9.000000 -6.000000 0.000000
9.750000 -6.000000 0.000000
10.500000 -6.000000 0.000000
11.250000 -6.000000 0.000000
12.000000 -6.000000 0.000000
12.750000 -6.000000 0.000000
13.500000 -6.000000 0.000000
14.250000 -6.000000 0.000000
15.000000 -6.000000 0.000000
15.750000 -6.000000 0.000000
16.500000 -6.000000 0.000000
17.250000 -6.000000 0.000000
18.000000 -6.000000 0.000000
18.750000 -6.000000 0.000000
19.500000 -6.000000 0.000000
20.250000 -6.000000 0.000000
21.000000 -6.000000 0.000000
21.750000 -6.000000 0.000000
22.500000 -6.000000 0.000000
23.250000 -6.000000 0.000000
24.000000 -6.000000 0.000000
24.750000 -6.000000 0.000000
25.500000 -6.000000 0.000000
26.250000 -6.000000 0.000000
27.000000 -6.000000 0.000000
27.750000 -6.000000 0.000000
28.500000 -6.000000 0.000000
29.250000 -6.000000 0.000000
30.000000 -6.000000 0.000000
30.750000 -6.000000 0.000000
31.500000 -6.000000 0.000000
32.250000 -6.000000 0.000000
33.000000 -6.000000 0.000000
33.750000 -6.000000 0.000000
34.500000 -6.000000 0.000000
35.250000 -6.000000 0.000000
36.000000 -6.000000 0.000000
36.750000 -6.000000 0.000000
37.500000 -6.000000 0.000000
38.250000 -6.000000 0.000000
39.000000 -6.000000 0.000000
39.750000 -6.000000 0.000000
40.500000 -6.000000 0.000000
41.250000 -6.000000 0.000000
42.000000 -6.000000 0.000000
42.750000 -6.000000 0.000000
43.500000 -6.000000 0.000000
44.250000 -6.000000 0.000000
45.000000 -6.000000 0.000000
45.750000 -6.000000 0.000000
46.500000 -6.000000 0.000000
47.250000 -6.000000 0.000000
48.000000 -5.250000 0.000000
48.000000 -4.500000 0.000000
48.000000 -3.750000 0.000000
48.000000 -3.000000 0.000000
48.000000 -2.250000 0.000000
48.000000 -1.500000 0.000000
48.000000 -0.750000 0.000000
48.000000 -0.000000 0.000000
48.000000 0.750000 0.000000
48.000000 1.500000 0.000000
48.000000 2.250000 0.000000
48.000000 3.000000 0.000000
48.000000 3.750000 0.000000
48.000000 4.500000 0.000000
48.000000 5.250000 0.000000
47.250000 6.000000 0.000000
46.500000 6.000000 0.000000
45.750000 6.000000 0.000000
45.000000 6.000000 0.000000
44.250000 6.000000 0.000000
43.500000 6.000000 0.000000
42.750000 6.000000 0.000000
42.000000 6.000000 0.000000
41.250000 6.000000 0.000000
40.500000 6.000000 0.000000
39.750000 6.000000 0.000000
39.000000 6.000000 0.000000
38.250000 6.000000 0.000000
37.500000 6.000000 0.000000
36.750000 6.000000 0.000000
36.000000 6.000000 0.000000
35.250000 6.000000 0.000000
34.500000 6.000000 0.000000
33.750000 6.000000 0.000000
33.000000 6.000000 0.000000
32.250000 6.000000 0.000000
31.500000 6.000000 0.000000
30.750000 6.000000 0.000000
30.000000 6.000000 0.000000
29.250000 6.000000 0.000000
28.500000 6.000000 0.000000
27.750000 6.000000 0.000000
27.000000 6.000000 0.000000
26.250000 6.000000 0.000000
25.500000 6.000000 0.000000
24.750000 6.000000 0.000000
24.000000 6.000000 0.000000
23.250000 6.000000 0.000000
22.500000 6.000000 0.000000
21.750000 6.000000 0.000000
21.000000 6.000000 0.000000
20.250000 6.000000 0.000000
19.500000 6.000000 0.000000
18.750000 6.000000 0.000000
18.000000 6.000000 0.000000
17.250000 6.000000 0.000000
16.500000 6.000000 0.000000
15.750000 6.000000 0.000000
15.000000 6.000000 0.000000
14.250000 6.000000 0.000000
13.500000 6.000000 0.000000
12.750000 6.000000 0.000000
12.000000 6.000000 0.000000
11.250000 6.000000 0.000000
10.500000 6.000000 0.000000
9.750000 6.000000 0.000000
9.000000 6.000000 0.000000
8.250000 6.000000 0.000000
7.500000 6.000000 0.000000
6.750000 6.000000 0.000000
6.000000 6.000000 0.000000
5.250000 6.000000 0.000000
4.500000 6.000000 0.000000
3.750000 6.000000 0.000000
3.000000 6.000000 0.000000
2.250000 6.000000 0.000000
1.500000 6.000000 0.000000
0.750000 6.000000 0.000000
0.000000 5.250000 0.000000
0.000000 4.500000 0.000000
0.000000 3.750000 0.000000
0.000000 3.000000 0.000000
0.000000 2.250000 0.000000
0.000000 1.500000 0.000000
0.000000 0.750000 0.000000
0.000000 0.000000 0.000000
0.000000 -0.750000 0.000000
0.000000 -1.500000 0.000000
0.000000 -2.250000 0.000000
0.000000 -3.000000 0.000000
0.000000 -3.750000 0.000000
0.000000 -4.500000 0.000000
0.000000 -5.250000 0.000000
0.750000 -5.250000 0.000000
0.750000 -4.500000 0.000000
0.750000 -3.750000 0.000000
0.750000 -3.000000 0.000000
0.750000 -2.250000 0.000000
0.750000 -1.500000 0.000000
0.750000 -0.750000 0.000000
0.750000 0.000000 0.000000
0.750000 0.750000 0.000000
0.750000 1.500000 0.000000
0.750000 2.250000 0.000000
0.750000 3.000000 0.000000
0.750000 3.750000 0.000000
0.750000 4.500000 0.000000
0.750000 5.250000 0.000000
1.500000 -5.250000 0.000000
1.500000 -4.500000 0.000000
1.500000 -3.750000 0.000000
1.500000 -3.000000 0.000000
1.500000 -2.250000 0.000000
1.500000 -1.500000 0.000000
1.500000 -0.750000 0.000000
1.500000 0.000000 0.000000
1.500000 0.750000 0.000000
1.500000 1.500000 0.000000
1.500000 2.250000 0.000000
1.500000 3.000000 0.000000
1.500000 3.750000 0.000000
1.500000 4.500000 0.000000
1.500000 5.250000 0.000000
2.250000 -5.250000 0.000000
2.250000 -4.500000 0.000000
2.250000 -3.750000 0.000000
2.250000 -3.000000 0.000000
2.250000 -2.250000 0.000000
2.250000 -1.500000 0.000000
2.250000 -0.750000 0.000000
2.250000 0.000000 0.000000
2.250000 0.750000 0.000000
2.250000 1.500000 0.000000
2.250000 2.250000 0.000000
2.250000 3.000000 0.000000
2.250000 3.750000 0.000000
2.250000 4.500000 0.000000
2.250000 5.250000 0.000000
3.000000 -5.250000 0.000000
3.000000 -4.500000 0.000000
3.000000 -3.750000 0.000000
3.000000 -3.000000 0.000000
3.000000 -2.250000 0.000000
3.000000 -1.500000 0.000000
3.000000 -0.750000 0.000000
3.000000 0.000000 0.000000
3.000000 0.750000 0.000000
3.000000 1.500000 0.000000
3.000000 2.250000 0.000000
3.000000 3.000000 0.000000
3.000000 3.750000 0.000000
3.000000 4.500000 0.000000
3.000000 5.250000 0.000000
3.750000 -5.250000 0.000000
3.750000 -4.500000 0.000000
3.750000 -3.750000 0.000000
3.750000 -3.000000 0.000000
3.750000 -2.250000 0.000000
3.750000 -1.500000 0.000000
3.750000 -0.750000 0.000000
3.750000 0.000000 0.000000
3.750000 0.750000 0.000000
3.750000 1.500000 0.000000
3.750000 2.250000 0.000000
3.750000 3.000000 0.000000
3.750000 3.750000 0.000000
3.750000 4.500000 0.000000
3.750000 5.250000 0.000000
4.500000 -5.250000 0.000000
4.500000 -4.500000 0.000000
4.500000 -3.750000 0.000000
4.500000 -3.000000 0.000000
4.500000 -2.250000 0.000000
4.500000 -1.500000 0.000000
4.500000 -0.750000 0.000000
4.500000 0.000000 0.000000
4.500000 0.750000 0.000000
4.500000 1.500000 0.000000
4.500000 2.250000 0.000000
4.500000 3.000000 0.000000
4.500000 3.750000 0.000000
4.500000 4.500000 0.000000
4.500000 5.250000 0.000000
5.250000 -5.250000 0.000000
5.250000 -4.500000 0.000000
5.250000 -3.750000 0.000000
5.250000 -3.000000 0.000000
5.250000 -2.250000 0.000000
5.250000 -1.500000 0.000000
5.250000 -0.750000 0.000000
5.250000 0.000000 0.000000
5.250000 0.750000 0.000000
5.250000 1.500000 0.000000
5.250000 2.250000 0.000000
5.250000 3.000000 0.000000
5.250000 3.750000 0.000000
5.250000 4.500000 0.000000
5.250000 5.250000 0.000000
6.000000 -5.250000 0.000000
6.000000 -4.500000 0.000000
6.000000 -3.750000 0.000000
6.000000 -3.000000 0.000000
6.000000 -2.250000 0.000000
6.000000 -1.500000 0.000000
6.000000 -0.750000 0.000000
6.000000 0.000000 0.000000
6.000000 0.750000 0.000000
6.000000 1.500000 0.000000
6.000000 2.250000 0.000000
6.000000 3.000000 0.000000
6.000000 3.750000 0.000000
6.000000 4.500000 0.000000
6.000000 5.250000 0.000000
6.750000 -5.250000 0.000000
6.750000 -4.500000 0.000000
6.750000 -3.750000 0.000000
6.750000 -3.000000 0.000000
6.750000 -2.250000 0.000000
6.750000 -1.500000 0.000000
6.750000 -0.750000 0.000000
6.750000 0.000000 0.000000
6.750000 0.750000 0.000000
6.750000 1.500000 0.000000
6.750000 2.250000 0.000000
6.750000 3.000000 0.000000
6.750000 3.750000 0.000000
6.750000 4.500000 0.000000
6.750000 5.250000 0.000000
7.500000 -5.250000 0.000000
7.500000 -4.500000 0.000000
7.500000 -3.750000 0.000000
7.500000 -3.000000 0.000000
7.500000 -2.250000 0.000000
7.500000 -1.500000 0.000000
7.500000 -0.750000 0.000000
7.500000 0.000000 0.000000
7.500000 0.750000 0.000000
7.500000 1.500000 0.000000
7.500000 2.250000 0.000000
7.500000 3.000000 0.000000
7.500000 3.750000 0.000000
7.500000 4.500000 0.000000
7.500000 5.250000 0.000000
8.250000 -5.250000 0.000000
8.250000 -4.500000 0.000000
8.250000 -3.750000 0.000000
8.250000 -3.000000 0.000000
8.250000 -2.250000 0.000000
8.250000 -1.500000 0.000000
8.250000 -0.750000 0.000000
8.250000 0.000000 0.000000
8.250000 0.750000 0.000000
8.250000 1.500000 0.000000
8.250000 2.250000 0.000000
8.250000 3.000000 0.000000
8.250000 3.750000 0.000000
8.250000 4.500000 0.000000
8.250000 5.250000 0.000000
9.000000 -5.250000 0.000000
9.000000 -4.500000 0.000000
9.000000 -3.750000 0.000000
9.000000 -3.000000 0.000000
9.000000 -2.250000 0.000000
9.000000 -1.500000 0.000000
9.000000 -0.750000 0.000000
9.000000 0.000000 0.000000
9.000000 0.750000 0.000000
9.000000 1.500000 0.000000
9.000000 2.250000 0.000000
9.000000 3.000000 0.000000
9.000000 3.750000 0.000000
9.000000 4.500000 0.000000
9.000000 5.250000 0.000000
9.750000 -5.250000 0.000000
9.750000 -4.500000 0.000000
9.750000 -3.750000 0.000000
9.750000 -3.000000 0.000000
9.750000 -2.250000 0.000000
9.750000 -1.500000 0.000000
9.750000 -0.750000 0.000000
9.750000 0.000000 0.000000
9.750000 0.750000 0.000000
9.750000 1.500000 0.000000
9.750000 2.250000 0.000000
9.750000 3.000000 0.000000
9.750000 3.750000 0.000000
9.750000 4.500000 0.000000
9.750000 5.250000 0.000000
10.500000 -5.250000 0.000000
[...]
POINT_DATA 1105
SCALARS P float
LOOKUP_TABLE default
1297894.384322
-1850.270837
-501.921081
-1261343.756999
2215022.456372
1661597.582591
1789984.528820
1137906.737598
159039.959491
509789.834270
556871.995717
-1616741.242800
-2252017.885822
1342131.094376
1466559.593331
-2074800.526725
230394.838220
-974860.272573
2482800.397079
365603.913889
-4529251.445725
-1866869.681546
-373807.399857
-573592.550054
-241109.609399
983382.735967
-17304.361350
-1261396.796541
-759154.921290
889184.449740
-2631.973170
-923215.204353
233618.709030
-767025.470814
-711691.771469
974.460473
202417.108159
-677300.099896
-263665.593071
-211278.894204
-57263.747820
-77877.504701
167032.076183
-37808.785079
654072.622707
-47937.441606
-167023.719811
-23039.597358
-306790.134935
305967.647713
-32797.021764
34905.786682
-81321.336767
-92000.790415
-18882.464142
18342.600198
-31366.814014
-17741.772270
-38796.862327
9216.721357
-11088.855637
6700.107276
-12248.941215
-7494.229771
-9940.997926
567.525432
549.293070
-2012.259602
383.819297
712.188234
-824.174325
-926.453873
1699.729946
764.241344
820.716914
1496.686768
802.947604
-542.576973
-2426.569280
-332.835000
2570.038171
-954.747809
-823.688742
244.590602
548.624159
387.781259
451.568559
160.614549
256.842100
1576.490163
346.173495
222.815242
-1384.753498
2838.482422
4723.325561
9057.955529
19880.839900
-12230.644642
4761.840933
17425.526335
20139.312194
12020.668089
-31972.269151
23924.389815
-6366.842250
-46700.946816
-10984.968076
-30395.244156
21891.908946
48366.805201
-628073.370494
99512.832473
-70304.507019
127572.425342
435091.985303
-225405.086303
-152492.759842
-30687.119961
-7175.919072
186114.951588
-198865.660540
621684.890989
-682244.396000
89543.804964
-524917.750522
1437079.192330
819253.983262
-732784.751992
231255.644481
1060764.709207
1416967.680591
-303063.350469
430988.961867
-3522142.774959
633801.328502
189404.246993
747414.214984
720322.325062
-1945709.617356
1156054.522155
2434468.874801
1124413.377982
-883009.106122
1141831.242742
-720983.735836
-257879.682143
-1191164.856319
1782654.880751
541837.551544
669531.545129
32601.511614
539092.079526
857185.727580
-168441.725142
631203.242524
-150286.180448
-1231079.823170
-698720.106697
-503730.344161
-559125.898325
-355121.861187
-701582.788605
-404890.353471
-205954.192797
-471701.531918
322127.625198
372435.410119
447463.214663
477035.631993
538160.193603
484365.774056
-509039.521071
-664951.203544
-946879.030081
-109398.754674
-531515.900733
-192253.209711
212889.310290
119213.327837
-221958.146678
1272547.136444
1087884.319105
1270074.064684
-159079.673217
747205.068853
-1330424.160897
-1144719.059374
-659840.551970
506225.793197
773520.145182
645923.506810
-823387.690829
-283636.351310
64388.008587
-681013.459343
-47752.561166
12715.902406
-2092144.534422
-525394.311309
-288625.712576
-2542424.924279
1320325.530823
34774.199063
347384.755446
-349366.927467
112384.653832
-350928.300390
174656.801397
-487430.867201
609220.633015
3416115.879855
-135923.783349
-478127.257148
2116794.365247
-2517780.399538
2509391.533545
-278536.337549
-314550.425336
136654.484449
-882902.314366
91067.621002
472356.969324
-1114593.238238
-974700.889948
142307.678600
224973.074174
-427203.551379
1644497.256590
-49977.055365
1230719.576393
1486218.471768
-204696.102019
1862878.372260
-769317.971673
-634432.380067
763197.226270
-595302.627570
-670328.802146
-486481.334463
-1503396.914655
-1571299.590475
1215470.359499
-153003.147194
296866.351206
-302983.570265
-1573895.408138
339422.177228
-61146.869437
-1284396.253529
940404.162209
1117181.075328
-420594.593360
218288.577037
-1773394.343798
-3192213.685790
-1405918.423986
-98573.851082
186655.840377
88863.848611
702569.612472
171335.815166
-310990.138436
1229434.270456
255430.377636
808504.955003
-1837733.281785
-1279288.415253
-295731.860317
2263835.102943
1700498.106145
-111119.288355
669757.042915
-688914.749424
944868.090013
-105177.974607
73122.315386
-505381.071467
154043.258602
-1354035.383756
-831087.703441
834802.940817
1265482.924551
1214925.982619
2077877.971935
2018483.638217
76993.862541
13063.981274
-683180.115035
-962491.551591
-565320.913754
-1106735.048875
-756467.996281
-280090.197306
-2045533.605201
609752.501031
1907100.018128
-839728.678708
-4777783.928913
-2969680.510149
-543874.077848
563869.350654
-809762.077616
-2059979.517150
597879.022333
-271791.186157
-166405.515101
-252738.168339
-489274.877077
482500.169757
-40878.335453
945329.350471
5381478.784800
3938445.040471
810911.136838
1214276.419253
584881.201343
275337.064344
3041970.196292
983717.183004
-249834.817272
-380731.067616
1240451.681947
304803.453401
279792.198411
806497.351758
-2460169.255472
160960.871050
506851.017813
-115900.602770
217831.615112
-1093361.633565
1730171.093551
2152185.605141
-1687133.708686
-903532.993178
473832.570725
26070.112259
-484649.686322
393538.336659
-720779.265469
-4906090.815159
-2119038.906239
-975937.126479
1257894.878656
1132524.917062
-419413.459322
-780020.525311
-3936268.452269
-115457.401449
1185149.899938
986776.502127
-903171.556288
-468976.251082
-403490.496801
-321227.051344
979105.210262
-388661.377611
-733182.687999
-1005009.009452
1328799.356443
1933604.744612
-1305968.309313
922078.378160
283034.764549
1668944.213457
-713415.560943
-146520.957783
1179292.162804
1080184.444526
-214522.327631
905876.528546
-1065389.341587
-424088.692623
1102274.563006
464850.030955
-118834.723745
1890362.667411
493746.253291
735611.385408
-1459910.675102
-814018.316589
810663.194134
-599560.513824
101672.815183
378297.077820
2116212.081708
3386374.418669
1039115.070547
-788688.510943
804822.121983
-314784.459656
-1313180.004749
-2248386.149409
-1883980.711996
-904929.472826
1410629.792344
442728.488000
-744255.677591
465698.099610
364931.495448
-198323.766021
-1666141.882490
-1370016.160161
90687.265531
-388916.907868
190441.954257
-1022373.195627
-596586.853950
-1371425.673082
817969.510775
-184627.090210
-1615235.034175
-895375.073875
-832040.422295
998021.598543
-154583.797339
118099.041959
629087.184714
133144.611885
-118372.052316
-944529.366004
1038876.610458
1307445.544619
431826.966387
-951532.807095
-1939600.540227
-412530.487990
-754707.822900
20342.181183
593453.150725
859528.153230
-313497.662671
-472611.836823
437166.410254
391638.795049
176523.511323
1129007.645245
1506054.700931
678452.844765
1199494.939026
958677.112123
592631.472357
629226.976217
1261137.480530
-169865.184238
147893.195671
99851.609110
-173931.552844
-549943.105529
-1209318.619684
-429811.382961
-430135.579441
-976946.686818
-105046.745037
545606.185345
183972.440698
152825.720403
753590.855654
-738214.059322
264661.604851
-174078.767251
329597.106318
736502.955418
-108619.671491
-776901.854991
-38707.994921
-504758.434540
137607.368475
22657.429043
254366.589580
-286655.971272
-803919.245288
-167595.197525
108778.419359
238922.504883
919198.397038
515843.781975
-256052.609890
-1206496.514695
643783.072586
869666.604860
765529.762592
-382627.947381
-119333.998857
216263.541334
194124.272193
25291.330908
789954.708565
302692.082145
112415.036664
-138221.664611
-1179548.465007
-223448.311032
740860.378613
275787.325842
-437318.593523
-52006.173566
-136341.886256
-511670.071671
-66917.698512
-423592.161813
696658.031644
-144262.011005
-477050.017770
-540107.354848
-537225.750124
-153819.292017
656576.386872
578862.201650
61731.308211
-247006.003206
-964444.979263
-417215.801027
-293797.235642
456759.050113
160647.524681
246876.561922
-458440.588247
-161652.605977
150917.308911
1089512.916638
253023.998616
-60484.060978
407410.369974
-191289.425055
-1038808.931928
238589.641137
-284553.462788
423930.329159
-336813.796649
200607.587531
-111644.107005
5935.274661
475911.940635
-31518.945606
953066.090983
-815680.045309
-187355.530788
-199678.475183
282248.031752
1085351.661477
1000239.392967
330316.812528
444402.954984
169368.073473
-180343.631736
-454990.351470
66510.194113
8000.332619
-62831.821935
-699991.320416
-317007.590254
250660.838397
588.585131
-304610.146047
-1906.952943
385213.465380
576443.916981
416770.419861
-26545.188145
104773.838930
-97109.023944
-399354.284880
-253252.643762
245187.975896
-82110.930204
235743.556694
-177238.564508
281994.835612
-66562.190238
113304.541169
-487651.119476
-620022.200161
-493347.729202
-374736.760601
-173572.982453
-124975.910756
-296741.834947
133626.710439
194741.932108
576855.324568
377141.839044
-331364.748690
-180626.687134
-227719.912843
-94184.359948
-459743.695689
-59450.318121
-86153.018428
-74094.078412
129975.889966
-215101.730675
102516.057044
-38827.496383
82047.832814
-141545.250432
-46392.081082
540158.901671
496167.675730
210875.922058
377256.574947
-76035.056749
-261227.707371
-66301.537249
232027.387860
-38256.078010
-94202.351126
5694.843485
-90193.868464
-272935.210880
-88677.079435
165540.812203
84735.225250
-284796.563872
101785.323899
-225384.868789
-97258.024607
721311.679477
660975.410899
196569.927236
-307631.982090
-12042.224108
46358.235218
-158873.893140
-236096.499349
526137.124841
46088.328737
-462963.711603
-347604.014935
-506542.773908
-548753.691246
313846.738122
136879.639767
-491835.643068
277717.472040
-93843.805494
-14860.566676
-121327.610051
14922.892415
246429.550085
-85235.035806
-51598.575909
386284.870175
285718.520743
-101426.580459
553544.706371
345718.291466
-395220.785041
-101178.768091
-177179.777912
-150714.815986
174858.332337
-36411.590608
152226.305508
-86058.484119
-392038.301433
-35544.199747
40540.653085
-55332.114778
244014.162456
24291.715093
-131289.320280
54479.025524
-284639.049507
-204272.666271
188438.624789
-4933.938164
58019.877623
64617.209460
210474.149134
216873.847403
22777.183318
-142283.041880
36645.071486
49414.327374
46615.711983
256396.772712
-198576.348732
-157181.349381
-34314.639773
-8637.750780
-55786.531820
83066.255100
72330.210945
50298.614392
-21908.292868
-9201.627266
72913.734230
25609.678786
51717.372201
91497.749500
-313183.049386
-128794.824564
224851.868553
102476.733329
125120.318095
33570.978299
1548.979787
148914.004972
-62235.210485
-169369.033682
19365.743425
-176537.407833
-80841.757223
80624.826981
33560.023136
109582.273442
209395.466641
-14565.913776
-48932.161997
156019.062605
36077.329032
46626.047227
-27533.362916
-111326.861471
122283.260693
-68814.742569
-73379.326417
-20024.349673
30577.617934
60882.712778
80057.050568
14474.084466
-10085.136128
49416.206625
-73481.620666
-47144.246192
-21221.865871
-157153.808709
-5693.418950
-13678.225501
18953.369556
94902.227420
112483.941238
-27664.404146
-93062.290141
-121200.139265
173977.684672
131426.715831
-4714.871869
-124969.998533
33174.426521
-14688.142535
-792.300800
-7707.447138
202573.742864
-51485.905677
-15034.038589
-17426.024476
20785.714779
-40741.218172
54215.834344
78962.463569
-74242.178296
-79911.847821
55135.322597
34482.649649
27245.993888
-54356.204287
-12283.784373
37713.180352
-18497.197841
12818.102007
17187.711440
30320.781727
13629.241068
117189.731762
-63592.365515
-43474.757863
15011.566547
-13800.280531
16101.557891
35434.315613
12239.093936
-31587.675243
-127494.382341
-42958.096624
-39992.612128
30892.518930
-81127.113244
27162.836078
-11210.931854
4908.296968
28533.348878
30019.338144
58061.402461
41885.376478
-8706.042553
-23862.999820
-2597.607450
-182351.201245
-48210.955759
91203.367900
18103.303572
-2181.081493
-81384.684586
-60269.558601
-52292.237185
-64135.324882
-99.694978
-21171.266990
-47269.291246
39372.665077
3535.532790
7825.167096
111416.508782
155736.845263
-24336.976604
-1755.565066
-48254.701849
-11990.825380
22246.518407
-22267.510071
90503.352092
18875.460864
6147.319415
30342.491559
49197.240867
-20554.086047
7317.032670
118780.690218
-10552.589251
14550.205544
-32978.466569
-26713.562353
66669.808480
-10128.249698
48361.513585
21062.370062
9670.983689
-40048.591265
21800.690745
-1197.187935
-21820.561643
3686.046474
182110.263851
80379.127005
-18583.308340
-38188.018483
12086.009506
71783.784875
-11943.465751
-39887.847911
-15745.933293
-51187.884922
-11481.304019
28580.454298
-7935.991933
3136.040478
32279.664277
-33867.924584
41653.334248
-29471.787263
19320.686659
36755.679292
-17799.199326
-18695.752624
-25742.404731
-61577.906643
-10421.314991
42233.002641
-17740.197380
-19385.122896
-8693.801196
9647.038740
24853.418413
-31855.914576
-17925.556164
15045.203141
-39817.227519
-20320.409674
-11306.363200
1721.693998
14100.596942
42057.700420
374.745392
-31005.809789
-15468.551957
-4121.797572
-7703.947662
-133921.125624
-37688.383139
-5501.544065
10045.443796
18767.921155
-3888.759562
-5472.364478
2940.252697
14058.826904
-10962.165629
-5120.995980
-28767.270025
29284.676203
2643.277468
-19362.501672
-13456.568079
31562.398768
-23467.315012
-7264.256350
-7848.281827
-24557.171053
-801.150556
7722.094404
220.000489
-1495.234734
4998.345746
2825.083027
5194.742734
-21818.836362
16950.652994
39237.456266
-12955.640432
22237.528096
11859.294168
1962.829450
9335.213514
7116.075760
6873.513783
8486.510288
11019.801205
326.060025
-4418.697395
-9128.520640
14957.415174
187.521642
-20842.482170
3064.699805
14434.607451
8121.693532
-1860.745235
-3124.946299
9446.431591
871.572855
-6106.622585
211.515210
-2263.603214
5456.454531
5756.332558
-2797.644656
1814.045542
12789.694126
12289.409841
1833.064272
-931.405474
684.254693
5363.958449
-7003.978388
-1224.762957
314.814642
-1797.760158
-170.303831
-1350.465968
-713.733087
2895.932789
-127.058427
-2382.918789
2393.245545
574.967203
-8156.390244
11132.080834
-4864.518317
-2426.510788
1710.432640
-2747.184205
-1339.234083
-4597.188057
-2948.837969
889.267122
-827.971733
-3519.655514
12368.258193
3629.203587
-7731.119343
7578.594273
-4606.529798
1499.656344
-6612.109785
-1400.860137
4876.314827
637.781963
695.635605
-2495.120775
-4440.509461
-1001.009616
1148.019422
-8406.402918
-14093.486651
7679.693000
-9066.985241
-2945.239312
-6127.504104
-937.571364
4474.302103
-1138.696326
46.575032
-142.629525
667.645099
-2441.330627
1075.734198
-918.868382
-12019.385272
4556.325951
-2861.510203
-1452.375660
-3238.642659
480.205967
1783.264632
-207.783610
-1166.072108
838.606972
4751.106734
2433.234758
723.527988
505.924758
-167.844929
5313.338056
-697.074396
1079.776618
-177.766457
-183.010203
-2409.925698
-1601.712615
-919.897371
1084.862515
701.590409
366.575692
-712.771906
-1278.801607
-252.883322
401.621679
-8594.753333
1726.742655
1054.864515
1799.570793
1102.964727
2590.584030
349.147333
888.215069
-37.555822
254.590081
-1062.757677
-2387.929736
363.164426
210.976328
-1089.636947
7675.001175
6372.342669
297.103401
250.061452
1629.271143
1019.644970
-1003.756052
-871.149975
-396.385019
-348.209908
-1465.588676
-462.257411
-741.077488
-296.476897
169.266995
-2598.583684
-3336.263541
1020.141379
267.900477
18.629827
161.504499
304.734190
-359.943761
-405.713078
84.630200
1004.253754
829.009720
123.634349
-209.804627
-140.574965
-511.139389
-15.694268
-235.739283
641.654913
-397.297645
-320.701908
-440.083789
-375.305787
-874.523198
-511.212602
-11.780096
-133.981263
156.131751
-853.609471
44.064103
-960.896400
-650.585168
317.555978
-547.056834
-959.609213
-594.834411
166.575845
-673.340035
-390.531950
-165.357865
-485.128326
-163.094183
-904.799214
1051.944071
335.124542
