# vtk DataFile Version 2.0
cantilever_tri3_mix
ASCII
DATASET POLYDATA
POINTS 27 float
0.000000 -6.000000 0.000000
48.000000 -6.000000 0.000000
48.000000 6.000000 0.000000
0.000000 6.000000 0.000000
6.000000 -6.000000 0.000000
12.000000 -6.000000 0.000000
18.000000 -6.000000 0.000000
24.000000 -6.000000 0.000000
30.000000 -6.000000 0.000000
36.000000 -6.000000 0.000000
42.000000 -6.000000 0.000000
48.000000 -0.000000 0.000000
42.000000 6.000000 0.000000
36.000000 6.000000 0.000000
30.000000 6.000000 0.000000
24.000000 6.000000 0.000000
18.000000 6.000000 0.000000
12.000000 6.000000 0.000000
6.000000 6.000000 0.000000
0.000000 0.000000 0.000000
6.000000 0.000000 0.000000
12.000000 0.000000 0.000000
18.000000 0.000000 0.000000
24.000000 0.000000 0.000000
30.000000 -0.000000 0.000000
36.000000 -0.000000 0.000000
42.000000 -0.000000 0.000000
POLYGONS 32 128
3 0 4 19
3 19 4 20
3 19 20 3
3 3 20 18
3 4 5 20
3 20 5 21
3 20 21 18
3 18 21 17
3 5 6 21
3 21 6 22
3 21 22 17
3 17 22 16
3 6 7 22
3 22 7 23
3 22 23 16
3 16 23 15
3 7 8 23
3 23 8 24
3 23 24 15
3 15 24 14
3 8 9 24
3 24 9 25
3 24 25 14
3 14 25 13
3 9 10 25
3 25 10 26
3 25 26 13
3 13 26 12
3 10 1 26
3 26 1 11
3 26 11 12
3 12 11 2
POINT_DATA 27
SCALARS P float
LOOKUP_TABLE default
1700702.275377
-24255.454438
-31044.545464
-740535.444636
541088.478643
-70743.219266
134042.410030
221736.041014
-57434.480221
-258306.446149
126897.539393
-29748.759814
-31013.530752
153077.241998
180998.237814
-77500.702401
-134153.859050
-32020.043511
118148.034432
64349.702746
-284851.443325
42385.568330
-49000.954071
-59043.334346
-233547.643479
85624.321013
54702.527992
