# vtk DataFile Version 2.0
cantilever_tri3_mix
ASCII
DATASET POLYDATA
POINTS 561 float
0.000000 0.000000 0.000000
48.000000 44.000000 0.000000
48.000000 60.000000 0.000000
0.000000 44.000000 0.000000
2.892819 2.651751 0.000000
5.647885 5.177228 0.000000
8.271757 7.582444 0.000000
10.770683 9.873126 0.000000
13.150613 12.054728 0.000000
15.417212 14.132444 0.000000
17.575878 16.111222 0.000000
19.631751 17.995772 0.000000
21.589725 19.790581 0.000000
23.454462 21.499923 0.000000
25.230402 23.127868 0.000000
26.921773 24.678292 0.000000
28.532603 26.154886 0.000000
30.066727 27.561166 0.000000
31.527797 28.900481 0.000000
32.919293 30.176018 0.000000
34.244527 31.390816 0.000000
35.506654 32.547766 0.000000
36.708680 33.649623 0.000000
37.853467 34.699011 0.000000
38.943740 35.698428 0.000000
39.982095 36.650254 0.000000
40.971005 37.556755 0.000000
41.912824 38.420089 0.000000
42.809794 39.242312 0.000000
43.664052 40.025381 0.000000
44.477630 40.771161 0.000000
45.252467 41.481428 0.000000
45.990407 42.157873 0.000000
46.693207 42.802106 0.000000
47.362540 43.415662 0.000000
48.000000 45.000000 0.000000
48.000000 46.000000 0.000000
48.000000 47.000000 0.000000
48.000000 48.000000 0.000000
48.000000 49.000000 0.000000
48.000000 50.000000 0.000000
48.000000 51.000000 0.000000
48.000000 52.000000 0.000000
48.000000 53.000000 0.000000
48.000000 54.000000 0.000000
48.000000 55.000000 0.000000
48.000000 56.000000 0.000000
48.000000 57.000000 0.000000
48.000000 58.000000 0.000000
48.000000 59.000000 0.000000
47.362540 59.787513 0.000000
46.693207 59.564402 0.000000
45.990407 59.330136 0.000000
45.252467 59.084156 0.000000
44.477630 58.825877 0.000000
43.664052 58.554684 0.000000
42.809794 58.269931 0.000000
41.912824 57.970941 0.000000
40.971005 57.657002 0.000000
39.982095 57.327365 0.000000
38.943740 56.981247 0.000000
37.853467 56.617822 0.000000
36.708680 56.236227 0.000000
35.506654 55.835551 0.000000
34.244527 55.414842 0.000000
32.919293 54.973098 0.000000
31.527797 54.509266 0.000000
30.066727 54.022242 0.000000
28.532603 53.510868 0.000000
26.921773 52.973924 0.000000
25.230402 52.410134 0.000000
23.454462 51.818154 0.000000
21.589725 51.196575 0.000000
19.631751 50.543917 0.000000
17.575878 49.858626 0.000000
15.417212 49.139071 0.000000
13.150613 48.383538 0.000000
10.770683 47.590228 0.000000
8.271757 46.757252 0.000000
5.647885 45.882628 0.000000
2.892819 44.964273 0.000000
0.000000 41.250000 0.000000
0.000000 38.500000 0.000000
0.000000 35.750000 0.000000
0.000000 33.000000 0.000000
0.000000 30.250000 0.000000
0.000000 27.500000 0.000000
0.000000 24.750000 0.000000
0.000000 22.000000 0.000000
0.000000 19.250000 0.000000
0.000000 16.500000 0.000000
0.000000 13.750000 0.000000
0.000000 11.000000 0.000000
0.000000 8.250000 0.000000
0.000000 5.500000 0.000000
0.000000 2.750000 0.000000
2.892819 5.296284 0.000000
2.892819 7.940816 0.000000
2.892819 10.585349 0.000000
2.892819 13.229881 0.000000
2.892819 15.874414 0.000000
2.892819 18.518947 0.000000
2.892819 21.163479 0.000000
2.892819 23.808012 0.000000
2.892819 26.452545 0.000000
2.892819 29.097077 0.000000
2.892819 31.741610 0.000000
2.892819 34.386143 0.000000
2.892819 37.030675 0.000000
2.892819 39.675208 0.000000
2.892819 42.319740 0.000000
5.647885 7.721315 0.000000
5.647885 10.265403 0.000000
5.647885 12.809490 0.000000
5.647885 15.353578 0.000000
5.647885 17.897666 0.000000
5.647885 20.441753 0.000000
5.647885 22.985841 0.000000
5.647885 25.529928 0.000000
5.647885 28.074016 0.000000
5.647885 30.618103 0.000000
5.647885 33.162191 0.000000
5.647885 35.706278 0.000000
5.647885 38.250366 0.000000
5.647885 40.794453 0.000000
5.647885 43.338541 0.000000
8.271757 10.030870 0.000000
8.271757 12.479295 0.000000
8.271757 14.927721 0.000000
8.271757 17.376146 0.000000
8.271757 19.824572 0.000000
8.271757 22.272997 0.000000
8.271757 24.721423 0.000000
8.271757 27.169848 0.000000
8.271757 29.618274 0.000000
8.271757 32.066699 0.000000
8.271757 34.515125 0.000000
8.271757 36.963550 0.000000
8.271757 39.411976 0.000000
8.271757 41.860401 0.000000
8.271757 44.308827 0.000000
10.770683 12.230445 0.000000
10.770683 14.587764 0.000000
10.770683 16.945083 0.000000
10.770683 19.302402 0.000000
10.770683 21.659720 0.000000
10.770683 24.017039 0.000000
10.770683 26.374358 0.000000
10.770683 28.731677 0.000000
10.770683 31.088996 0.000000
10.770683 33.446315 0.000000
10.770683 35.803634 0.000000
10.770683 38.160952 0.000000
10.770683 40.518271 0.000000
10.770683 42.875590 0.000000
10.770683 45.232909 0.000000
13.150613 14.325279 0.000000
13.150613 16.595829 0.000000
13.150613 18.866380 0.000000
13.150613 21.136931 0.000000
13.150613 23.407481 0.000000
13.150613 25.678032 0.000000
13.150613 27.948582 0.000000
13.150613 30.219133 0.000000
13.150613 32.489683 0.000000
13.150613 34.760234 0.000000
13.150613 37.030785 0.000000
13.150613 39.301335 0.000000
13.150613 41.571886 0.000000
13.150613 43.842436 0.000000
13.150613 46.112987 0.000000
15.417212 16.320359 0.000000
15.417212 18.508273 0.000000
15.417212 20.696187 0.000000
15.417212 22.884101 0.000000
15.417212 25.072015 0.000000
15.417212 27.259929 0.000000
15.417212 29.447843 0.000000
15.417212 31.635758 0.000000
15.417212 33.823672 0.000000
15.417212 36.011586 0.000000
15.417212 38.199500 0.000000
15.417212 40.387414 0.000000
15.417212 42.575328 0.000000
15.417212 44.763242 0.000000
15.417212 46.951157 0.000000
17.575878 18.220435 0.000000
17.575878 20.329647 0.000000
17.575878 22.438860 0.000000
17.575878 24.548073 0.000000
17.575878 26.657286 0.000000
17.575878 28.766498 0.000000
17.575878 30.875711 0.000000
17.575878 32.984924 0.000000
17.575878 35.094137 0.000000
17.575878 37.203349 0.000000
17.575878 39.312562 0.000000
17.575878 41.421775 0.000000
17.575878 43.530988 0.000000
17.575878 45.640201 0.000000
17.575878 47.749413 0.000000
19.631751 20.030031 0.000000
19.631751 22.064290 0.000000
19.631751 24.098549 0.000000
19.631751 26.132808 0.000000
19.631751 28.167067 0.000000
19.631751 30.201326 0.000000
19.631751 32.235585 0.000000
19.631751 34.269844 0.000000
19.631751 36.304103 0.000000
19.631751 38.338362 0.000000
19.631751 40.372622 0.000000
19.631751 42.406881 0.000000
19.631751 44.441140 0.000000
19.631751 46.475399 0.000000
19.631751 48.509658 0.000000
21.589725 21.753456 0.000000
21.589725 23.716330 0.000000
21.589725 25.679205 0.000000
21.589725 27.642080 0.000000
21.589725 29.604954 0.000000
21.589725 31.567829 0.000000
21.589725 33.530703 0.000000
21.589725 35.493578 0.000000
21.589725 37.456453 0.000000
21.589725 39.419327 0.000000
21.589725 41.382202 0.000000
21.589725 43.345076 0.000000
21.589725 45.307951 0.000000
21.589725 47.270826 0.000000
21.589725 49.233700 0.000000
23.454462 23.394813 0.000000
23.454462 25.289702 0.000000
23.454462 27.184592 0.000000
23.454462 29.079481 0.000000
23.454462 30.974370 0.000000
23.454462 32.869260 0.000000
23.454462 34.764149 0.000000
23.454462 36.659039 0.000000
23.454462 38.553928 0.000000
23.454462 40.448817 0.000000
23.454462 42.343707 0.000000
23.454462 44.238596 0.000000
23.454462 46.133486 0.000000
23.454462 48.028375 0.000000
23.454462 49.923265 0.000000
25.230402 24.958010 0.000000
25.230402 26.788152 0.000000
25.230402 28.618293 0.000000
25.230402 30.448435 0.000000
25.230402 32.278576 0.000000
25.230402 34.108718 0.000000
25.230402 35.938860 0.000000
25.230402 37.769001 0.000000
25.230402 39.599143 0.000000
25.230402 41.429284 0.000000
25.230402 43.259426 0.000000
25.230402 45.089568 0.000000
25.230402 46.919709 0.000000
25.230402 48.749851 0.000000
25.230402 50.579992 0.000000
26.921773 26.446769 0.000000
26.921773 28.215246 0.000000
26.921773 29.983723 0.000000
26.921773 31.752200 0.000000
26.921773 33.520677 0.000000
26.921773 35.289154 0.000000
26.921773 37.057631 0.000000
26.921773 38.826108 0.000000
26.921773 40.594585 0.000000
26.921773 42.363062 0.000000
26.921773 44.131539 0.000000
26.921773 45.900016 0.000000
26.921773 47.668493 0.000000
26.921773 49.436970 0.000000
26.921773 51.205447 0.000000
28.532603 27.864635 0.000000
28.532603 29.574384 0.000000
28.532603 31.284133 0.000000
28.532603 32.993882 0.000000
28.532603 34.703630 0.000000
28.532603 36.413379 0.000000
28.532603 38.123128 0.000000
28.532603 39.832877 0.000000
28.532603 41.542626 0.000000
28.532603 43.252375 0.000000
28.532603 44.962124 0.000000
28.532603 46.671872 0.000000
28.532603 48.381621 0.000000
28.532603 50.091370 0.000000
28.532603 51.801119 0.000000
30.066727 29.214984 0.000000
30.066727 30.868801 0.000000
30.066727 32.522618 0.000000
30.066727 34.176435 0.000000
30.066727 35.830253 0.000000
30.066727 37.484070 0.000000
30.066727 39.137887 0.000000
30.066727 40.791704 0.000000
30.066727 42.445522 0.000000
30.066727 44.099339 0.000000
30.066727 45.753156 0.000000
30.066727 47.406973 0.000000
30.066727 49.060791 0.000000
30.066727 50.714608 0.000000
30.066727 52.368425 0.000000
31.527797 30.501030 0.000000
31.527797 32.101579 0.000000
31.527797 33.702128 0.000000
31.527797 35.302677 0.000000
31.527797 36.903226 0.000000
31.527797 38.503775 0.000000
31.527797 40.104324 0.000000
31.527797 41.704873 0.000000
31.527797 43.305422 0.000000
31.527797 44.905971 0.000000
31.527797 46.506520 0.000000
31.527797 48.107070 0.000000
31.527797 49.707619 0.000000
31.527797 51.308168 0.000000
31.527797 52.908717 0.000000
32.919293 31.725836 0.000000
32.919293 33.275653 0.000000
32.919293 34.825471 0.000000
32.919293 36.375288 0.000000
32.919293 37.925106 0.000000
32.919293 39.474923 0.000000
32.919293 41.024740 0.000000
32.919293 42.574558 0.000000
32.919293 44.124375 0.000000
32.919293 45.674193 0.000000
32.919293 47.224010 0.000000
32.919293 48.773828 0.000000
32.919293 50.323645 0.000000
32.919293 51.873463 0.000000
32.919293 53.423280 0.000000
34.244527 32.892318 0.000000
34.244527 34.393819 0.000000
34.244527 35.895321 0.000000
34.244527 37.396823 0.000000
34.244527 38.898324 0.000000
34.244527 40.399826 0.000000
34.244527 41.901327 0.000000
34.244527 43.402829 0.000000
[...]
POINT_DATA 561
SCALARS P float
LOOKUP_TABLE default
0.472192
10.794749
-1.294526
-32.869541
3.975582
8.923106
7.897891
3.704321
7.734215
8.444711
7.755373
10.351734
9.862038
11.842626
11.648435
11.726358
11.741408
10.938609
12.208390
11.066539
12.047135
13.248644
12.759304
13.309586
12.314034
10.131782
9.895957
10.032103
9.116370
9.044083
10.039941
10.990956
6.673151
5.213131
9.777690
1.514599
0.495358
6.351937
3.398723
0.089051
3.087393
4.433605
8.585809
10.352802
6.558161
7.275405
8.002657
8.273970
7.072525
1.688747
1.602361
0.177323
-5.462838
-6.388513
-5.146122
-5.178065
-5.393694
-3.041645
-3.772400
-6.039455
-5.510965
-5.454574
-8.058209
-7.069569
-6.556756
-9.206817
-8.613099
-8.139535
-9.557440
-8.197781
-8.579011
-10.818653
-9.846684
-9.915657
-7.835447
-11.647369
-16.501486
-1.709697
-13.339695
-18.384677
-7.204135
-14.263018
-0.907369
-17.678640
-4.278274
10.643803
-2.680960
-1.274199
13.977534
7.364516
1.048222
8.560169
11.028340
-0.563750
8.623657
7.820329
8.384220
0.582585
6.439966
11.733840
4.190939
3.627211
10.810999
5.003572
-3.193622
5.360962
5.647222
-12.457043
-12.593820
-4.487752
-16.024710
3.518298
4.105817
12.445996
4.924258
2.369616
7.346413
8.050090
0.998912
-1.369538
3.043431
0.378508
-6.916722
-10.941568
-10.487661
-9.266549
2.930163
8.675235
5.774090
2.351099
5.138882
7.912549
5.195528
1.381237
-4.880280
0.275653
3.674996
-3.618564
-8.708279
-9.453864
-13.337634
5.667542
8.451180
6.932179
7.036021
3.930639
4.344057
8.525605
2.615352
-4.940779
-0.478941
-3.323144
-7.282552
-7.222848
-7.224020
-1.732289
8.195349
7.612971
9.913201
4.289280
1.175186
7.554985
9.280144
-0.725803
-1.619286
-1.307255
-3.074508
-2.031579
-6.516574
-9.714055
-10.198528
4.893609
8.207364
7.851582
1.188404
2.633024
7.201247
4.784322
1.719781
1.423574
-1.706648
-1.226807
-4.276239
-8.257648
-11.063627
-11.951308
8.386321
12.486443
9.387808
5.842973
3.479216
3.015181
2.654832
3.176972
1.217866
0.281113
-2.721455
-4.689168
-5.681300
-5.516999
-4.533832
9.975332
10.212223
10.279443
7.152820
5.270002
5.980081
3.567078
-0.668474
-0.469319
-1.735919
-1.750480
-0.319035
-3.953025
-4.658982
-7.677716
7.777193
7.873839
8.462213
6.478739
7.286207
6.658503
0.615413
0.028237
0.020185
-1.671380
-0.359289
-2.772897
-6.970805
-7.792252
-9.004942
10.205649
10.430109
7.891408
5.499183
7.569478
5.668238
4.715944
4.895158
0.389320
-2.575128
-4.664764
-8.041700
-9.344445
-10.246561
-9.259753
11.683821
11.638188
8.075323
7.801789
7.836416
5.948960
5.352957
3.328557
0.784772
-0.846190
-1.946198
-4.114365
-6.849552
-7.508565
-7.847855
12.170333
9.538368
6.903834
7.489149
6.406977
4.485973
3.313453
1.796770
2.275374
2.317721
2.126989
0.724246
-2.065518
-2.581501
-7.179677
10.957831
8.573419
7.829523
7.092548
5.650175
3.616418
2.214673
1.387611
1.595351
1.345023
0.922901
-0.911894
-1.342233
-5.464119
-8.634661
12.381781
12.069566
8.953781
7.448755
5.185687
4.822476
2.616756
2.716534
0.972674
-0.661418
-2.584080
-5.072280
-5.330744
-9.983989
-7.526232
13.679523
11.537941
9.329551
8.313314
7.958460
5.999402
3.782534
1.580174
-2.126382
-3.985539
-6.490379
-6.192547
-7.588900
-8.042001
-5.957475
11.313114
9.316102
9.949711
10.125897
8.722080
4.510559
2.804473
-0.267847
-1.896409
-3.399712
-4.923161
-3.163005
-5.253563
-3.801597
-6.850073
10.317760
8.471977
9.466899
8.805041
5.733670
4.367596
3.809752
3.218006
2.925394
1.651551
0.381637
-0.208426
-2.937776
-3.648618
-6.895476
9.771537
8.881210
9.090893
7.562112
6.072398
5.999146
5.842391
6.064433
5.399887
3.440320
2.021821
0.161212
-2.847102
-5.164394
-5.753547
10.762331
9.913836
8.454058
7.392294
7.022718
7.185748
7.085050
6.016127
5.373228
2.261089
1.108994
-1.229316
-4.617048
-5.803496
-6.289797
11.987194
9.370595
7.829298
6.668772
6.654205
6.392153
4.353672
3.644982
2.348033
-0.691486
-1.237816
-4.233106
-6.297204
-4.395387
-4.995990
10.958163
9.860474
7.463819
5.478251
4.986760
2.289610
0.388597
0.603077
-1.680464
-2.221795
-1.664079
-3.610777
-3.382337
-2.067581
-4.327519
11.218919
10.480720
6.442222
5.814469
3.962444
0.564243
0.555661
0.289485
-1.600127
-0.397725
-0.170777
-1.339776
-0.942628
-3.531209
-6.161257
11.621617
8.899392
6.933181
6.592156
2.623761
1.528326
1.576198
0.575825
-0.025839
0.692651
0.435023
-0.822820
-1.703404
-5.823485
-5.576608
10.013716
8.063212
8.698756
5.770665
3.211232
3.069294
2.741592
2.383875
2.107468
2.140065
1.981737
0.674918
-1.540625
-5.270003
-3.642659
9.031887
10.492854
9.772862
6.764691
6.559905
5.024702
5.223665
4.895938
3.584969
4.223427
3.455010
2.138792
-0.571586
-4.242430
-3.903880
10.109055
10.261477
8.352477
9.041899
7.564493
5.496665
5.838831
3.634727
1.821381
2.709535
1.272516
1.177750
-0.095465
-3.248749
-3.318560
9.181112
5.920507
7.399918
8.110068
3.977161
3.718081
3.588412
0.563049
0.177405
-0.104419
-1.226490
1.427854
1.649252
-0.979156
-1.028271
5.658496
3.843173
6.879536
4.682597
2.964779
4.794275
3.776572
2.222713
2.909003
1.543403
1.219220
5.263185
3.843078
0.571903
-0.765951
3.162351
4.764230
5.077640
3.417656
5.730927
7.367595
6.504420
6.434579
5.922066
3.596974
3.713948
6.639610
2.262949
-0.456634
-2.059122
5.146594
3.561127
2.699336
5.463140
7.220161
6.781539
7.020573
6.632708
5.910407
3.210226
3.633163
5.136501
0.585280
0.493336
-0.150728
6.090097
0.219278
3.645131
6.282440
3.657743
3.927616
5.399786
5.723298
7.798231
5.110330
5.042844
6.175175
4.496777
5.716262
3.546787
