# vtk DataFile Version 2.0
cantilever_Q4P1_mix
ASCII
DATASET POLYDATA
POINTS 81 float
1.000000 0.000000 0.000000
5.000000 0.000000 0.000000
5.000000 5.000000 0.000000
0.000000 5.000000 0.000000
0.000000 1.000000 0.000000
0.707107 0.707107 0.000000
1.201594 0.000000 0.000000
1.453587 0.000000 0.000000
1.768577 0.000000 0.000000
2.162316 0.000000 0.000000
2.654488 0.000000 0.000000
3.269705 0.000000 0.000000
4.038725 0.000000 0.000000
5.000000 0.931446 0.000000
5.000000 2.049180 0.000000
5.000000 3.390462 0.000000
3.390462 5.000000 0.000000
2.049180 5.000000 0.000000
0.931446 5.000000 0.000000
0.000000 4.038725 0.000000
0.000000 3.269705 0.000000
0.000000 2.654488 0.000000
0.000000 2.162316 0.000000
0.000000 1.768577 0.000000
0.000000 1.453587 0.000000
0.000000 1.201594 0.000000
0.195090 0.980785 0.000000
0.382683 0.923880 0.000000
0.555570 0.831470 0.000000
0.831470 0.555570 0.000000
0.923880 0.382683 0.000000
0.980785 0.195090 0.000000
0.856873 0.856873 0.000000
1.059057 1.059057 0.000000
1.332005 1.332005 0.000000
1.700486 1.700486 0.000000
2.197934 2.197934 0.000000
2.869490 2.869490 0.000000
3.776090 3.776090 0.000000
0.220161 1.170722 0.000000
0.254207 1.410982 0.000000
0.300420 1.715141 0.000000
0.363123 2.100515 0.000000
0.448164 2.589220 0.000000
0.563460 3.209532 0.000000
0.719723 3.997656 0.000000
0.439927 1.101649 0.000000
0.517497 1.330083 0.000000
0.622579 1.624023 0.000000
0.764896 2.002786 0.000000
0.957591 2.491547 0.000000
1.218440 3.123161 0.000000
1.571474 3.940574 0.000000
0.653744 0.996062 0.000000
0.786516 1.212036 0.000000
0.966052 1.495816 0.000000
1.208794 1.869189 0.000000
1.536958 2.361081 0.000000
1.980556 3.009932 0.000000
2.580133 3.866877 0.000000
0.996062 0.653744 0.000000
1.212036 0.786516 0.000000
1.495816 0.966052 0.000000
1.869189 1.208794 0.000000
2.361081 1.536958 0.000000
3.009932 1.980556 0.000000
3.866877 2.580133 0.000000
1.101649 0.439927 0.000000
1.330083 0.517497 0.000000
1.624023 0.622579 0.000000
2.002786 0.764896 0.000000
2.491547 0.957591 0.000000
3.123161 1.218440 0.000000
3.940574 1.571474 0.000000
1.170722 0.220161 0.000000
1.410982 0.254207 0.000000
1.715141 0.300420 0.000000
2.100515 0.363123 0.000000
2.589220 0.448164 0.000000
3.209532 0.563460 0.000000
3.997656 0.719723 0.000000
POLYGONS 128 512
3 4 26 25
3 25 26 39
3 25 39 24
3 24 39 40
3 24 40 23
3 23 40 41
3 23 41 22
3 22 41 42
3 22 42 21
3 21 42 43
3 21 43 20
3 20 43 44
3 20 44 19
3 19 44 45
3 19 45 3
3 3 45 18
3 26 27 39
3 39 27 46
3 39 46 40
3 40 46 47
3 40 47 41
3 41 47 48
3 41 48 42
3 42 48 49
3 42 49 43
3 43 49 50
3 43 50 44
3 44 50 51
3 44 51 45
3 45 51 52
3 45 52 18
3 18 52 17
3 27 28 46
3 46 28 53
3 46 53 47
3 47 53 54
3 47 54 48
3 48 54 55
3 48 55 49
3 49 55 56
3 49 56 50
3 50 56 57
3 50 57 51
3 51 57 58
3 51 58 52
3 52 58 59
3 52 59 17
3 17 59 16
3 28 5 53
3 53 5 32
3 53 32 54
3 54 32 33
3 54 33 55
3 55 33 34
3 55 34 56
3 56 34 35
3 56 35 57
3 57 35 36
3 57 36 58
3 58 36 37
3 58 37 59
3 59 37 38
3 59 38 16
3 16 38 2
3 5 29 60
3 60 32 5
3 32 60 61
3 61 33 32
3 33 61 62
3 62 34 33
3 34 62 63
3 63 35 34
3 35 63 64
3 64 36 35
3 36 64 65
3 65 37 36
3 37 65 66
3 66 38 37
3 38 66 15
3 15 2 38
3 29 30 67
3 67 60 29
3 60 67 68
3 68 61 60
3 61 68 69
3 69 62 61
3 62 69 70
3 70 63 62
3 63 70 71
3 71 64 63
3 64 71 72
3 72 65 64
3 65 72 73
3 73 66 65
3 66 73 14
3 14 15 66
3 30 31 74
3 74 67 30
3 67 74 75
3 75 68 67
3 68 75 76
3 76 69 68
3 69 76 77
3 77 70 69
3 70 77 78
3 78 71 70
3 71 78 79
3 79 72 71
3 72 79 80
3 80 73 72
3 73 80 13
3 13 14 73
3 31 0 6
3 6 74 31
3 74 6 7
3 7 75 74
3 75 7 8
3 8 76 75
3 76 8 9
3 9 77 76
3 77 9 10
3 10 78 77
3 78 10 11
3 11 79 78
3 79 11 12
3 12 80 79
3 80 12 1
3 1 13 80
POINT_DATA 81
VECTORS U float
0.002741 0.000031 0.000000
0.005039 -0.000002 0.000000
0.004658 -0.001924 0.000000
-0.000002 -0.002182 0.000000
-0.000109 -0.000889 0.000000
0.001962 -0.000659 0.000000
0.002800 0.000013 0.000000
0.002828 0.000006 0.000000
0.002903 0.000001 0.000000
0.003057 -0.000001 0.000000
0.003320 -0.000003 0.000000
0.003719 -0.000003 0.000000
0.004282 -0.000003 0.000000
0.005016 -0.000316 0.000000
0.004917 -0.000722 0.000000
0.004778 -0.001258 0.000000
0.003145 -0.001998 0.000000
0.001880 -0.002092 0.000000
0.000846 -0.002164 0.000000
-0.000001 -0.001861 0.000000
-0.000002 -0.001621 0.000000
-0.000003 -0.001450 0.000000
-0.000005 -0.001330 0.000000
-0.000010 -0.001249 0.000000
-0.000016 -0.001176 0.000000
-0.000006 -0.001089 0.000000
0.000559 -0.000922 0.000000
0.001072 -0.000846 0.000000
0.001560 -0.000771 0.000000
0.002308 -0.000531 0.000000
0.002553 -0.000364 0.000000
0.002706 -0.000186 0.000000
0.001714 -0.000502 0.000000
0.001648 -0.000478 0.000000
0.001717 -0.000530 0.000000
0.001922 -0.000650 0.000000
0.002281 -0.000837 0.000000
0.002822 -0.001099 0.000000
0.003593 -0.001454 0.000000
0.000369 -0.001050 0.000000
0.000336 -0.001131 0.000000
0.000323 -0.001200 0.000000
0.000355 -0.001286 0.000000
0.000418 -0.001404 0.000000
0.000516 -0.001578 0.000000
0.000655 -0.001824 0.000000
0.000797 -0.000920 0.000000
0.000711 -0.000977 0.000000
0.000708 -0.001041 0.000000
0.000779 -0.001128 0.000000
0.000922 -0.001258 0.000000
0.001142 -0.001448 0.000000
0.001453 -0.001719 0.000000
0.001247 -0.000719 0.000000
0.001160 -0.000741 0.000000
0.001175 -0.000793 0.000000
0.001305 -0.000892 0.000000
0.001545 -0.001046 0.000000
0.001910 -0.001269 0.000000
0.002428 -0.001580 0.000000
0.002157 -0.000307 0.000000
0.002137 -0.000256 0.000000
0.002190 -0.000273 0.000000
0.002359 -0.000356 0.000000
0.002664 -0.000491 0.000000
0.003139 -0.000680 0.000000
0.003826 -0.000931 0.000000
0.002519 -0.000163 0.000000
0.002525 -0.000112 0.000000
0.002590 -0.000114 0.000000
0.002741 -0.000163 0.000000
0.003012 -0.000248 0.000000
0.003436 -0.000366 0.000000
0.004055 -0.000521 0.000000
0.002735 -0.000066 0.000000
0.002765 -0.000038 0.000000
0.002835 -0.000038 0.000000
0.002984 -0.000061 0.000000
0.003242 -0.000100 0.000000
0.003642 -0.000154 0.000000
0.004218 -0.000223 0.000000
CELL_DATA 128
SCALARS P float 1
LOOKUP_TABLE default
1.122367
1.183203
0.911178
0.924432
0.770833
0.778770
0.659080
0.663666
0.584402
0.586114
0.533082
0.533151
0.498301
0.497937
0.474856
0.474898
1.118826
0.961785
0.935638
0.834929
0.766637
0.697575
0.664277
0.612138
0.584944
0.549652
0.531934
0.506928
0.496745
0.478530
0.473175
0.459898
0.907228
0.772801
0.765917
0.690009
0.687459
0.599578
0.603925
0.535839
0.547699
0.494424
0.507020
0.468261
0.479617
0.452576
0.462276
0.443115
0.627983
0.521847
0.583748
0.499536
0.541177
0.463382
0.515503
0.444439
0.488806
0.435379
0.469244
0.432478
0.454832
0.432189
0.447362
0.430528
0.264659
0.316487
0.291182
0.362840
0.335213
0.395904
0.360116
0.416788
0.383048
0.428601
0.399978
0.433463
0.412810
0.434937
0.419623
0.437127
-0.039534
0.053957
0.094460
0.178838
0.190495
0.258785
0.270038
0.324040
0.325456
0.367090
0.363854
0.395181
0.389797
0.412578
0.406368
0.423682
-0.245570
-0.129476
-0.039364
0.031042
0.104320
0.157195
0.214401
0.244338
0.290718
0.308649
0.341378
0.353803
0.374066
0.383757
0.396875
0.405365
-0.292707
-0.280773
-0.060830
-0.063377
0.092410
0.093885
0.203369
0.205172
0.279978
0.281577
0.332380
0.333415
0.367452
0.368570
0.391407
0.389918
