# vtk DataFile Version 2.0
cantilever_Q4P1_mix
ASCII
DATASET POLYDATA
POINTS 1105 float
0.000000 -6.000000 0.000000
48.000000 -6.000000 0.000000
48.000000 6.000000 0.000000
0.000000 6.000000 0.000000
0.750000 -6.000000 0.000000
1.500000 -6.000000 0.000000
2.250000 -6.000000 0.000000
3.000000 -6.000000 0.000000
3.750000 -6.000000 0.000000
4.500000 -6.000000 0.000000
5.250000 -6.000000 0.000000
6.000000 -6.000000 0.000000
6.750000 -6.000000 0.000000
7.500000 -6.000000 0.000000
8.250000 -6.000000 0.000000
9.000000 -6.000000 0.000000
9.750000 -6.000000 0.000000
10.500000 -6.000000 0.000000
11.250000 -6.000000 0.000000
12.000000 -6.000000 0.000000
12.750000 -6.000000 0.000000
13.500000 -6.000000 0.000000
14.250000 -6.000000 0.000000
15.000000 -6.000000 0.000000
15.750000 -6.000000 0.000000
16.500000 -6.000000 0.000000
17.250000 -6.000000 0.000000
18.000000 -6.000000 0.000000
18.750000 -6.000000 0.000000
19.500000 -6.000000 0.000000
20.250000 -6.000000 0.000000
21.000000 -6.000000 0.000000
21.750000 -6.000000 0.000000
22.500000 -6.000000 0.000000
23.250000 -6.000000 0.000000
24.000000 -6.000000 0.000000
24.750000 -6.000000 0.000000
25.500000 -6.000000 0.000000
26.250000 -6.000000 0.000000
27.000000 -6.000000 0.000000
27.750000 -6.000000 0.000000
28.500000 -6.000000 0.000000
29.250000 -6.000000 0.000000
30.000000 -6.000000 0.000000
30.750000 -6.000000 0.000000
31.500000 -6.000000 0.000000
32.250000 -6.000000 0.000000
33.000000 -6.000000 0.000000
33.750000 -6.000000 0.000000
34.500000 -6.000000 0.000000
35.250000 -6.000000 0.000000
36.000000 -6.000000 0.000000
36.750000 -6.000000 0.000000
37.500000 -6.000000 0.000000
38.250000 -6.000000 0.000000
39.000000 -6.000000 0.000000
39.750000 -6.000000 0.000000
40.500000 -6.000000 0.000000
41.250000 -6.000000 0.000000
42.000000 -6.000000 0.000000
42.750000 -6.000000 0.000000
43.500000 -6.000000 0.000000
44.250000 -6.000000 0.000000
45.000000 -6.000000 0.000000
45.750000 -6.000000 0.000000
46.500000 -6.000000 0.000000
47.250000 -6.000000 0.000000
48.000000 -5.250000 0.000000
48.000000 -4.500000 0.000000
48.000000 -3.750000 0.000000
48.000000 -3.000000 0.000000
48.000000 -2.250000 0.000000
48.000000 -1.500000 0.000000
48.000000 -0.750000 0.000000
48.000000 -0.000000 0.000000
48.000000 0.750000 0.000000
48.000000 1.500000 0.000000
48.000000 2.250000 0.000000
48.000000 3.000000 0.000000
48.000000 3.750000 0.000000
48.000000 4.500000 0.000000
48.000000 5.250000 0.000000
47.250000 6.000000 0.000000
46.500000 6.000000 0.000000
45.750000 6.000000 0.000000
45.000000 6.000000 0.000000
44.250000 6.000000 0.000000
43.500000 6.000000 0.000000
42.750000 6.000000 0.000000
42.000000 6.000000 0.000000
41.250000 6.000000 0.000000
40.500000 6.000000 0.000000
39.750000 6.000000 0.000000
39.000000 6.000000 0.000000
38.250000 6.000000 0.000000
37.500000 6.000000 0.000000
36.750000 6.000000 0.000000
36.000000 6.000000 0.000000
35.250000 6.000000 0.000000
34.500000 6.000000 0.000000
33.750000 6.000000 0.000000
33.000000 6.000000 0.000000
32.250000 6.000000 0.000000
31.500000 6.000000 0.000000
30.750000 6.000000 0.000000
30.000000 6.000000 0.000000
29.250000 6.000000 0.000000
28.500000 6.000000 0.000000
27.750000 6.000000 0.000000
27.000000 6.000000 0.000000
26.250000 6.000000 0.000000
25.500000 6.000000 0.000000
24.750000 6.000000 0.000000
24.000000 6.000000 0.000000
23.250000 6.000000 0.000000
22.500000 6.000000 0.000000
21.750000 6.000000 0.000000
21.000000 6.000000 0.000000
20.250000 6.000000 0.000000
19.500000 6.000000 0.000000
18.750000 6.000000 0.000000
18.000000 6.000000 0.000000
17.250000 6.000000 0.000000
16.500000 6.000000 0.000000
15.750000 6.000000 0.000000
15.000000 6.000000 0.000000
14.250000 6.000000 0.000000
13.500000 6.000000 0.000000
12.750000 6.000000 0.000000
12.000000 6.000000 0.000000
11.250000 6.000000 0.000000
10.500000 6.000000 0.000000
9.750000 6.000000 0.000000
9.000000 6.000000 0.000000
8.250000 6.000000 0.000000
7.500000 6.000000 0.000000
6.750000 6.000000 0.000000
6.000000 6.000000 0.000000
5.250000 6.000000 0.000000
4.500000 6.000000 0.000000
3.750000 6.000000 0.000000
3.000000 6.000000 0.000000
2.250000 6.000000 0.000000
1.500000 6.000000 0.000000
0.750000 6.000000 0.000000
0.000000 5.250000 0.000000
0.000000 4.500000 0.000000
0.000000 3.750000 0.000000
0.000000 3.000000 0.000000
0.000000 2.250000 0.000000
0.000000 1.500000 0.000000
0.000000 0.750000 0.000000
0.000000 0.000000 0.000000
0.000000 -0.750000 0.000000
0.000000 -1.500000 0.000000
0.000000 -2.250000 0.000000
0.000000 -3.000000 0.000000
0.000000 -3.750000 0.000000
0.000000 -4.500000 0.000000
0.000000 -5.250000 0.000000
0.750000 -5.250000 0.000000
0.750000 -4.500000 0.000000
0.750000 -3.750000 0.000000
0.750000 -3.000000 0.000000
0.750000 -2.250000 0.000000
0.750000 -1.500000 0.000000
0.750000 -0.750000 0.000000
0.750000 0.000000 0.000000
0.750000 0.750000 0.000000
0.750000 1.500000 0.000000
0.750000 2.250000 0.000000
0.750000 3.000000 0.000000
0.750000 3.750000 0.000000
0.750000 4.500000 0.000000
0.750000 5.250000 0.000000
1.500000 -5.250000 0.000000
1.500000 -4.500000 0.000000
1.500000 -3.750000 0.000000
1.500000 -3.000000 0.000000
1.500000 -2.250000 0.000000
1.500000 -1.500000 0.000000
1.500000 -0.750000 0.000000
1.500000 0.000000 0.000000
1.500000 0.750000 0.000000
1.500000 1.500000 0.000000
1.500000 2.250000 0.000000
1.500000 3.000000 0.000000
1.500000 3.750000 0.000000
1.500000 4.500000 0.000000
1.500000 5.250000 0.000000
2.250000 -5.250000 0.000000
2.250000 -4.500000 0.000000
2.250000 -3.750000 0.000000
2.250000 -3.000000 0.000000
2.250000 -2.250000 0.000000
2.250000 -1.500000 0.000000
2.250000 -0.750000 0.000000
2.250000 0.000000 0.000000
2.250000 0.750000 0.000000
2.250000 1.500000 0.000000
2.250000 2.250000 0.000000
2.250000 3.000000 0.000000
2.250000 3.750000 0.000000
2.250000 4.500000 0.000000
2.250000 5.250000 0.000000
3.000000 -5.250000 0.000000
3.000000 -4.500000 0.000000
3.000000 -3.750000 0.000000
3.000000 -3.000000 0.000000
3.000000 -2.250000 0.000000
3.000000 -1.500000 0.000000
3.000000 -0.750000 0.000000
3.000000 0.000000 0.000000
3.000000 0.750000 0.000000
3.000000 1.500000 0.000000
3.000000 2.250000 0.000000
3.000000 3.000000 0.000000
3.000000 3.750000 0.000000
3.000000 4.500000 0.000000
3.000000 5.250000 0.000000
3.750000 -5.250000 0.000000
3.750000 -4.500000 0.000000
3.750000 -3.750000 0.000000
3.750000 -3.000000 0.000000
3.750000 -2.250000 0.000000
3.750000 -1.500000 0.000000
3.750000 -0.750000 0.000000
3.750000 0.000000 0.000000
3.750000 0.750000 0.000000
3.750000 1.500000 0.000000
3.750000 2.250000 0.000000
3.750000 3.000000 0.000000
3.750000 3.750000 0.000000
3.750000 4.500000 0.000000
3.750000 5.250000 0.000000
4.500000 -5.250000 0.000000
4.500000 -4.500000 0.000000
4.500000 -3.750000 0.000000
4.500000 -3.000000 0.000000
4.500000 -2.250000 0.000000
4.500000 -1.500000 0.000000
4.500000 -0.750000 0.000000
4.500000 0.000000 0.000000
4.500000 0.750000 0.000000
4.500000 1.500000 0.000000
4.500000 2.250000 0.000000
4.500000 3.000000 0.000000
4.500000 3.750000 0.000000
4.500000 4.500000 0.000000
4.500000 5.250000 0.000000
5.250000 -5.250000 0.000000
5.250000 -4.500000 0.000000
5.250000 -3.750000 0.000000
5.250000 -3.000000 0.000000
5.250000 -2.250000 0.000000
5.250000 -1.500000 0.000000
5.250000 -0.750000 0.000000
5.250000 0.000000 0.000000
5.250000 0.750000 0.000000
5.250000 1.500000 0.000000
5.250000 2.250000 0.000000
5.250000 3.000000 0.000000
5.250000 3.750000 0.000000
5.250000 4.500000 0.000000
5.250000 5.250000 0.000000
6.000000 -5.250000 0.000000
6.000000 -4.500000 0.000000
6.000000 -3.750000 0.000000
6.000000 -3.000000 0.000000
6.000000 -2.250000 0.000000
6.000000 -1.500000 0.000000
6.000000 -0.750000 0.000000
6.000000 0.000000 0.000000
6.000000 0.750000 0.000000
6.000000 1.500000 0.000000
6.000000 2.250000 0.000000
6.000000 3.000000 0.000000
6.000000 3.750000 0.000000
6.000000 4.500000 0.000000
6.000000 5.250000 0.000000
6.750000 -5.250000 0.000000
6.750000 -4.500000 0.000000
6.750000 -3.750000 0.000000
6.750000 -3.000000 0.000000
6.750000 -2.250000 0.000000
6.750000 -1.500000 0.000000
6.750000 -0.750000 0.000000
6.750000 0.000000 0.000000
6.750000 0.750000 0.000000
6.750000 1.500000 0.000000
6.750000 2.250000 0.000000
6.750000 3.000000 0.000000
6.750000 3.750000 0.000000
6.750000 4.500000 0.000000
6.750000 5.250000 0.000000
7.500000 -5.250000 0.000000
7.500000 -4.500000 0.000000
7.500000 -3.750000 0.000000
7.500000 -3.000000 0.000000
7.500000 -2.250000 0.000000
7.500000 -1.500000 0.000000
7.500000 -0.750000 0.000000
7.500000 0.000000 0.000000
7.500000 0.750000 0.000000
7.500000 1.500000 0.000000
7.500000 2.250000 0.000000
7.500000 3.000000 0.000000
7.500000 3.750000 0.000000
7.500000 4.500000 0.000000
7.500000 5.250000 0.000000
8.250000 -5.250000 0.000000
8.250000 -4.500000 0.000000
8.250000 -3.750000 0.000000
8.250000 -3.000000 0.000000
8.250000 -2.250000 0.000000
8.250000 -1.500000 0.000000
8.250000 -0.750000 0.000000
8.250000 0.000000 0.000000
8.250000 0.750000 0.000000
8.250000 1.500000 0.000000
8.250000 2.250000 0.000000
8.250000 3.000000 0.000000
8.250000 3.750000 0.000000
8.250000 4.500000 0.000000
8.250000 5.250000 0.000000
9.000000 -5.250000 0.000000
9.000000 -4.500000 0.000000
9.000000 -3.750000 0.000000
9.000000 -3.000000 0.000000
9.000000 -2.250000 0.000000
9.000000 -1.500000 0.000000
9.000000 -0.750000 0.000000
9.000000 0.000000 0.000000
9.000000 0.750000 0.000000
9.000000 1.500000 0.000000
9.000000 2.250000 0.000000
9.000000 3.000000 0.000000
9.000000 3.750000 0.000000
9.000000 4.500000 0.000000
9.000000 5.250000 0.000000
9.750000 -5.250000 0.000000
9.750000 -4.500000 0.000000
9.750000 -3.750000 0.000000
9.750000 -3.000000 0.000000
9.750000 -2.250000 0.000000
9.750000 -1.500000 0.000000
9.750000 -0.750000 0.000000
9.750000 0.000000 0.000000
9.750000 0.750000 0.000000
9.750000 1.500000 0.000000
9.750000 2.250000 0.000000
9.750000 3.000000 0.000000
9.750000 3.750000 0.000000
9.750000 4.500000 0.000000
9.750000 5.250000 0.000000
10.500000 -5.250000 0.000000
[...]
POINT_DATA 1105
VECTORS U float
-0.000000 0.001499 0.000000
0.011974 0.068522 0.000000
-0.012046 0.068451 0.000000
0.000000 0.001488 0.000000
0.000371 0.001581 0.000000
0.000736 0.001700 0.000000
0.001095 0.001861 0.000000
0.001448 0.002065 0.000000
0.001795 0.002311 0.000000
0.002136 0.002600 0.000000
0.002471 0.002932 0.000000
0.002800 0.003306 0.000000
0.003124 0.003721 0.000000
0.003441 0.004178 0.000000
0.003753 0.004675 0.000000
0.004059 0.005211 0.000000
0.004359 0.005786 0.000000
0.004654 0.006399 0.000000
0.004943 0.007049 0.000000
0.005226 0.007735 0.000000
0.005503 0.008456 0.000000
0.005775 0.009211 0.000000
0.006041 0.010000 0.000000
0.006301 0.010822 0.000000
0.006556 0.011677 0.000000
0.006805 0.012562 0.000000
0.007048 0.013479 0.000000
0.007285 0.014425 0.000000
0.007517 0.015400 0.000000
0.007742 0.016404 0.000000
0.007962 0.017436 0.000000
0.008176 0.018495 0.000000
0.008384 0.019580 0.000000
0.008586 0.020690 0.000000
0.008783 0.021826 0.000000
0.008973 0.022985 0.000000
0.009158 0.024168 0.000000
0.009337 0.025374 0.000000
0.009509 0.026601 0.000000
0.009676 0.027850 0.000000
0.009837 0.029119 0.000000
0.009992 0.030408 0.000000
0.010142 0.031715 0.000000
0.010285 0.033042 0.000000
0.010422 0.034385 0.000000
0.010553 0.035745 0.000000
0.010679 0.037122 0.000000
0.010798 0.038514 0.000000
0.010911 0.039920 0.000000
0.011019 0.041341 0.000000
0.011120 0.042775 0.000000
0.011215 0.044221 0.000000
0.011305 0.045680 0.000000
0.011389 0.047149 0.000000
0.011466 0.048629 0.000000
0.011538 0.050118 0.000000
0.011604 0.051616 0.000000
0.011665 0.053123 0.000000
0.011720 0.054636 0.000000
0.011769 0.056157 0.000000
0.011813 0.057683 0.000000
0.011851 0.059215 0.000000
0.011885 0.060752 0.000000
0.011913 0.062295 0.000000
0.011936 0.063843 0.000000
0.011953 0.065396 0.000000
0.011966 0.066956 0.000000
0.010439 0.068517 0.000000
0.008918 0.068511 0.000000
0.007409 0.068506 0.000000
0.005912 0.068501 0.000000
0.004423 0.068495 0.000000
0.002941 0.068490 0.000000
0.001462 0.068485 0.000000
-0.000015 0.068480 0.000000
-0.001493 0.068476 0.000000
-0.002974 0.068471 0.000000
-0.004460 0.068467 0.000000
-0.005953 0.068463 0.000000
-0.007456 0.068460 0.000000
-0.008971 0.068456 0.000000
-0.010501 0.068454 0.000000
-0.012045 0.066899 0.000000
-0.012037 0.065352 0.000000
-0.012023 0.063810 0.000000
-0.012003 0.062273 0.000000
-0.011976 0.060740 0.000000
-0.011943 0.059210 0.000000
-0.011904 0.057684 0.000000
-0.011858 0.056163 0.000000
-0.011806 0.054647 0.000000
-0.011748 0.053136 0.000000
-0.011685 0.051632 0.000000
-0.011615 0.050134 0.000000
-0.011540 0.048646 0.000000
-0.011459 0.047166 0.000000
-0.011372 0.045696 0.000000
-0.011279 0.044237 0.000000
-0.011181 0.042789 0.000000
-0.011077 0.041354 0.000000
-0.010968 0.039932 0.000000
-0.010852 0.038524 0.000000
-0.010731 0.037131 0.000000
-0.010605 0.035753 0.000000
-0.010472 0.034391 0.000000
-0.010334 0.033046 0.000000
-0.010190 0.031719 0.000000
-0.010041 0.030410 0.000000
-0.009885 0.029121 0.000000
-0.009724 0.027851 0.000000
-0.009557 0.026601 0.000000
-0.009384 0.025373 0.000000
-0.009205 0.024167 0.000000
-0.009020 0.022984 0.000000
-0.008830 0.021825 0.000000
-0.008634 0.020689 0.000000
-0.008432 0.019579 0.000000
-0.008223 0.018494 0.000000
-0.008010 0.017436 0.000000
-0.007790 0.016405 0.000000
-0.007564 0.015402 0.000000
-0.007332 0.014427 0.000000
-0.007095 0.013482 0.000000
-0.006851 0.012567 0.000000
-0.006601 0.011683 0.000000
-0.006346 0.010831 0.000000
-0.006084 0.010010 0.000000
-0.005817 0.009223 0.000000
-0.005544 0.008470 0.000000
-0.005264 0.007750 0.000000
-0.004979 0.007066 0.000000
-0.004687 0.006419 0.000000
-0.004390 0.005808 0.000000
-0.004087 0.005234 0.000000
-0.003778 0.004699 0.000000
-0.003462 0.004203 0.000000
-0.003142 0.003747 0.000000
-0.002815 0.003331 0.000000
-0.002483 0.002957 0.000000
-0.002145 0.002623 0.000000
-0.001801 0.002332 0.000000
-0.001452 0.002082 0.000000
-0.001097 0.001872 0.000000
-0.000737 0.001705 0.000000
-0.000371 0.001578 0.000000
0.000039 0.001138 0.000000
0.000062 0.000835 0.000000
0.000071 0.000578 0.000000
0.000070 0.000369 0.000000
0.000061 0.000206 0.000000
0.000044 0.000090 0.000000
0.000023 0.000021 0.000000
0.000000 -0.000001 0.000000
-0.000023 0.000023 0.000000
-0.000044 0.000094 0.000000
-0.000060 0.000212 0.000000
-0.000070 0.000375 0.000000
-0.000072 0.000586 0.000000
-0.000061 0.000844 0.000000
-0.000038 0.001148 0.000000
0.000286 0.001235 0.000000
0.000217 0.000936 0.000000
0.000161 0.000683 0.000000
0.000115 0.000476 0.000000
0.000079 0.000315 0.000000
0.000050 0.000200 0.000000
0.000024 0.000130 0.000000
0.000000 0.000107 0.000000
-0.000022 0.000130 0.000000
-0.000048 0.000198 0.000000
-0.000078 0.000313 0.000000
-0.000114 0.000473 0.000000
-0.000160 0.000680 0.000000
-0.000217 0.000933 0.000000
-0.000286 0.001232 0.000000
0.000605 0.001361 0.000000
0.000491 0.001066 0.000000
0.000389 0.000818 0.000000
0.000298 0.000615 0.000000
0.000216 0.000456 0.000000
0.000141 0.000343 0.000000
0.000069 0.000276 0.000000
0.000001 0.000253 0.000000
-0.000068 0.000276 0.000000
-0.000140 0.000344 0.000000
-0.000215 0.000457 0.000000
-0.000297 0.000616 0.000000
-0.000388 0.000820 0.000000
-0.000490 0.001070 0.000000
-0.000606 0.001364 0.000000
0.000919 0.001528 0.000000
0.000760 0.001239 0.000000
0.000613 0.000994 0.000000
0.000477 0.000795 0.000000
0.000350 0.000639 0.000000
0.000230 0.000529 0.000000
0.000114 0.000463 0.000000
0.000000 0.000441 0.000000
-0.000113 0.000464 0.000000
-0.000230 0.000531 0.000000
-0.000350 0.000643 0.000000
-0.000477 0.000800 0.000000
-0.000613 0.001001 0.000000
-0.000761 0.001247 0.000000
-0.000921 0.001538 0.000000
0.001228 0.001737 0.000000
0.001024 0.001453 0.000000
0.000833 0.001213 0.000000
0.000653 0.001017 0.000000
0.000482 0.000864 0.000000
0.000318 0.000756 0.000000
0.000157 0.000691 0.000000
-0.000001 0.000670 0.000000
-0.000158 0.000693 0.000000
-0.000319 0.000760 0.000000
-0.000484 0.000870 0.000000
-0.000655 0.001025 0.000000
-0.000835 0.001223 0.000000
-0.001027 0.001465 0.000000
-0.001232 0.001751 0.000000
0.001532 0.001989 0.000000
0.001284 0.001710 0.000000
0.001049 0.001474 0.000000
0.000826 0.001281 0.000000
0.000611 0.001131 0.000000
0.000403 0.001025 0.000000
0.000200 0.000962 0.000000
-0.000002 0.000941 0.000000
-0.000203 0.000964 0.000000
-0.000407 0.001030 0.000000
-0.000615 0.001139 0.000000
-0.000830 0.001291 0.000000
-0.001054 0.001487 0.000000
-0.001289 0.001725 0.000000
-0.001537 0.002007 0.000000
0.001830 0.002283 0.000000
0.001539 0.002009 0.000000
0.001262 0.001777 0.000000
0.000995 0.001588 0.000000
0.000738 0.001441 0.000000
0.000487 0.001337 0.000000
0.000241 0.001274 0.000000
-0.000003 0.001255 0.000000
-0.000247 0.001277 0.000000
-0.000494 0.001342 0.000000
-0.000745 0.001450 0.000000
-0.001002 0.001600 0.000000
-0.001269 0.001792 0.000000
-0.001547 0.002027 0.000000
-0.001838 0.002304 0.000000
0.002123 0.002620 0.000000
0.001790 0.002351 0.000000
0.001470 0.002123 0.000000
0.001162 0.001937 0.000000
0.000863 0.001793 0.000000
0.000570 0.001690 0.000000
0.000281 0.001629 0.000000
-0.000005 0.001610 0.000000
-0.000291 0.001633 0.000000
-0.000579 0.001697 0.000000
-0.000872 0.001802 0.000000
-0.001172 0.001950 0.000000
-0.001481 0.002139 0.000000
-0.001801 0.002370 0.000000
-0.002134 0.002642 0.000000
0.002410 0.003000 0.000000
0.002036 0.002735 0.000000
0.001675 0.002511 0.000000
0.001326 0.002329 0.000000
0.000985 0.002187 0.000000
0.000651 0.002086 0.000000
0.000321 0.002026 0.000000
-0.000006 0.002007 0.000000
-0.000334 0.002030 0.000000
-0.000664 0.002093 0.000000
-0.000998 0.002197 0.000000
-0.001339 0.002342 0.000000
-0.001689 0.002527 0.000000
-0.002050 0.002754 0.000000
-0.002425 0.003022 0.000000
0.002693 0.003421 0.000000
0.002278 0.003161 0.000000
0.001877 0.002941 0.000000
0.001486 0.002762 0.000000
0.001105 0.002622 0.000000
0.000731 0.002523 0.000000
0.000360 0.002465 0.000000
-0.000008 0.002446 0.000000
-0.000376 0.002468 0.000000
-0.000746 0.002530 0.000000
-0.001121 0.002632 0.000000
-0.001503 0.002775 0.000000
-0.001893 0.002957 0.000000
-0.002295 0.003180 0.000000
-0.002711 0.003443 0.000000
0.002971 0.003883 0.000000
0.002516 0.003628 0.000000
0.002075 0.003412 0.000000
0.001644 0.003236 0.000000
0.001223 0.003099 0.000000
0.000809 0.003002 0.000000
0.000398 0.002944 0.000000
-0.000009 0.002926 0.000000
-0.000417 0.002947 0.000000
-0.000828 0.003008 0.000000
-0.001242 0.003108 0.000000
-0.001664 0.003248 0.000000
-0.002094 0.003428 0.000000
-0.002536 0.003646 0.000000
-0.002992 0.003905 0.000000
0.003243 0.004385 0.000000
0.002749 0.004135 0.000000
0.002269 0.003923 0.000000
0.001799 0.003750 0.000000
0.001339 0.003615 0.000000
0.000885 0.003520 0.000000
0.000436 0.003463 0.000000
-0.000011 0.003445 0.000000
-0.000458 0.003466 0.000000
-0.000907 0.003526 0.000000
-0.001361 0.003624 0.000000
-0.001822 0.003762 0.000000
-0.002292 0.003938 0.000000
-0.002773 0.004153 0.000000
-0.003268 0.004406 0.000000
0.003511 0.004927 0.000000
0.002978 0.004681 0.000000
0.002459 0.004473 0.000000
0.001952 0.004303 0.000000
0.001453 0.004171 0.000000
0.000961 0.004078 0.000000
0.000473 0.004022 0.000000
-0.000012 0.004004 0.000000
-0.000498 0.004025 0.000000
-0.000986 0.004083 0.000000
-0.001478 0.004180 0.000000
-0.001977 0.004315 0.000000
-0.002485 0.004487 0.000000
-0.003005 0.004698 0.000000
-0.003538 0.004947 0.000000
0.003773 0.005508 0.000000
0.003203 0.005266 0.000000
0.002646 0.005062 0.000000
0.002101 0.004895 0.000000
0.001565 0.004766 0.000000
0.001035 0.004674 0.000000
0.000509 0.004619 0.000000
-0.000014 0.004602 0.000000
-0.000537 0.004622 0.000000
-0.001063 0.004679 0.000000
-0.001593 0.004774 0.000000
-0.002129 0.004906 0.000000
-0.002675 0.005075 0.000000
-0.003233 0.005282 0.000000
-0.003804 0.005526 0.000000
0.004031 0.006126 0.000000
0.003424 0.005889 0.000000
0.002830 0.005689 0.000000
0.002248 0.005525 0.000000
0.001674 0.005398 0.000000
0.001108 0.005308 0.000000
0.000545 0.005254 0.000000
-0.000015 0.005237 0.000000
-0.000575 0.005257 0.000000
-0.001138 0.005313 0.000000
-0.001705 0.005405 0.000000
-0.002278 0.005535 0.000000
-0.002861 0.005701 0.000000
-0.003456 0.005903 0.000000
-0.004064 0.006143 0.000000
0.004284 0.006781 0.000000
0.003640 0.006549 0.000000
0.003010 0.006352 0.000000
0.002392 0.006192 0.000000
0.001782 0.006067 0.000000
0.001179 0.005979 0.000000
0.000580 0.005926 0.000000
-0.000016 0.005909 0.000000
-0.000613 0.005928 0.000000
-0.001211 0.005983 0.000000
-0.001815 0.006074 0.000000
-0.002425 0.006201 0.000000
-0.003044 0.006363 0.000000
-0.003675 0.006562 0.000000
-0.004319 0.006796 0.000000
0.004531 0.007472 0.000000
0.003852 0.007244 0.000000
0.003187 0.007052 0.000000
0.002533 0.006895 0.000000
0.001887 0.006773 0.000000
0.001249 0.006686 0.000000
0.000615 0.006634 0.000000
-0.000017 0.006617 0.000000
-0.000649 0.006636 0.000000
-0.001283 0.006689 0.000000
-0.001922 0.006778 0.000000
-0.002568 0.006902 0.000000
-0.003222 0.007061 0.000000
-0.003889 0.007256 0.000000
-0.004569 0.007485 0.000000
0.004774 0.008198 0.000000
0.004060 0.007975 0.000000
0.003360 0.007787 0.000000
0.002671 0.007633 0.000000
0.001991 0.007513 0.000000
0.001318 0.007428 0.000000
0.000649 0.007377 0.000000
-0.000018 0.007361 0.000000
-0.000685 0.007379 0.000000
-0.001354 0.007431 0.000000
-0.002027 0.007518 0.000000
-0.002708 0.007639 0.000000
-0.003397 0.007795 0.000000
-0.004098 0.007985 0.000000
-0.004813 0.008210 0.000000
0.005012 0.008959 0.000000
0.004264 0.008741 0.000000
0.003529 0.008556 0.000000
0.002806 0.008405 0.000000
0.002092 0.008288 0.000000
0.001385 0.008204 0.000000
0.000682 0.008155 0.000000
-0.000019 0.008138 0.000000
-0.000720 0.008156 0.000000
-0.001423 0.008207 0.000000
-0.002130 0.008292 0.000000
-0.002845 0.008411 0.000000
-0.003568 0.008563 0.000000
-0.004304 0.008750 0.000000
-0.005053 0.008969 0.000000
0.005244 0.009754 0.000000
0.004463 0.009540 0.000000
0.003695 0.009359 0.000000
0.002939 0.009211 0.000000
0.002192 0.009097 0.000000
0.001451 0.009015 0.000000
0.000715 0.008966 0.000000
-0.000019 0.008950 0.000000
-0.000754 0.008967 0.000000
-0.001490 0.009017 0.000000
-0.002231 0.009100 0.000000
-0.002979 0.009216 0.000000
-0.003736 0.009365 0.000000
-0.004504 0.009547 0.000000
-0.005287 0.009762 0.000000
0.005472 0.010581 0.000000
0.004658 0.010372 0.000000
0.003858 0.010195 0.000000
0.003069 0.010051 0.000000
0.002289 0.009938 0.000000
0.001516 0.009858 0.000000
0.000747 0.009810 0.000000
-0.000020 0.009795 0.000000
-0.000787 0.009811 0.000000
-0.001556 0.009860 0.000000
-0.002330 0.009941 0.000000
-0.003110 0.010055 0.000000
-0.003899 0.010200 0.000000
-0.004701 0.010378 0.000000
-0.005516 0.010588 0.000000
0.005695 0.011441 0.000000
0.004849 0.011236 0.000000
0.004017 0.011063 0.000000
0.003196 0.010922 0.000000
0.002384 0.010812 0.000000
0.001579 0.010734 0.000000
0.000778 0.010687 0.000000
-0.000021 0.010672 0.000000
-0.000819 0.010688 0.000000
-0.001620 0.010735 0.000000
-0.002426 0.010815 0.000000
-0.003238 0.010925 0.000000
-0.004059 0.011068 0.000000
-0.004892 0.011241 0.000000
-0.005739 0.011446 0.000000
0.005913 0.012332 0.000000
0.005036 0.012132 0.000000
0.004172 0.011963 0.000000
0.003320 0.011825 0.000000
0.002477 0.011717 0.000000
0.001641 0.011641 0.000000
0.000809 0.011595 0.000000
-0.000021 0.011580 0.000000
-0.000851 0.011596 0.000000
-0.001683 0.011642 0.000000
-0.002519 0.011719 0.000000
-0.003363 0.011827 0.000000
-0.004215 0.011966 0.000000
-0.005080 0.012136 0.000000
-0.005958 0.012336 0.000000
0.006125 0.013253 0.000000
0.005218 0.013058 0.000000
0.004324 0.012893 0.000000
0.003442 0.012758 0.000000
0.002568 0.012654 0.000000
0.001701 0.012579 0.000000
0.000839 0.012534 0.000000
-0.000021 0.012519 0.000000
-0.000881 0.012534 0.000000
-0.001744 0.012580 0.000000
-0.002611 0.012655 0.000000
-0.003485 0.012760 0.000000
-0.004368 0.012896 0.000000
-0.005262 0.013061 0.000000
-0.006171 0.013257 0.000000
0.006333 0.014205 0.000000
0.005396 0.014015 0.000000
0.004472 0.013854 0.000000
0.003560 0.013722 0.000000
0.002657 0.013620 0.000000
0.001760 0.013546 0.000000
0.000868 0.013503 0.000000
-0.000021 0.013488 0.000000
-0.000911 0.013503 0.000000
-0.001803 0.013547 0.000000
-0.002700 0.013621 0.000000
-0.003604 0.013723 0.000000
-0.004516 0.013855 0.000000
-0.005441 0.014017 0.000000
-0.006379 0.014207 0.000000
0.006535 0.015186 0.000000
0.005569 0.015000 0.000000
0.004617 0.014843 0.000000
0.003676 0.014715 0.000000
0.002744 0.014615 0.000000
0.001818 0.014544 0.000000
0.000897 0.014501 0.000000
-0.000022 0.014487 0.000000
-0.000940 0.014501 0.000000
-0.001861 0.014544 0.000000
-0.002787 0.014616 0.000000
-0.003720 0.014716 0.000000
-0.004661 0.014844 0.000000
-0.005614 0.015002 0.000000
-0.006582 0.015187 0.000000
0.006733 0.016195 0.000000
0.005738 0.016015 0.000000
0.004758 0.015861 0.000000
0.003789 0.015736 0.000000
0.002828 0.015639 0.000000
0.001875 0.015569 0.000000
0.000925 0.015528 0.000000
-0.000022 0.015514 0.000000
-0.000969 0.015528 0.000000
-0.001918 0.015569 0.000000
-0.002872 0.015639 0.000000
-0.003832 0.015737 0.000000
-0.004802 0.015862 0.000000
-0.005784 0.016015 0.000000
-0.006779 0.016196 0.000000
0.006925 0.017233 0.000000
0.005903 0.017056 0.000000
0.004895 0.016907 0.000000
0.003898 0.016785 0.000000
0.002911 0.016690 0.000000
0.001929 0.016623 0.000000
0.000953 0.016582 0.000000
-0.000022 0.016568 0.000000
-0.000996 0.016582 0.000000
-0.001973 0.016623 0.000000
-0.002954 0.016691 0.000000
-0.003942 0.016785 0.000000
-0.004940 0.016907 0.000000
-0.005949 0.017057 0.000000
-0.006972 0.017233 0.000000
0.007112 0.018297 0.000000
0.006064 0.018125 0.000000
0.005029 0.017980 0.000000
0.004005 0.017862 0.000000
0.002991 0.017769 0.000000
0.001983 0.017703 0.000000
0.000980 0.017664 0.000000
-0.000022 0.017650 0.000000
-0.001023 0.017664 0.000000
-0.002026 0.017703 0.000000
-0.003034 0.017769 0.000000
-0.004049 0.017861 0.000000
-0.005073 0.017980 0.000000
-0.006109 0.018125 0.000000
-0.007159 0.018296 0.000000
0.007295 0.019387 0.000000
0.006220 0.019221 0.000000
0.005159 0.019080 0.000000
0.004109 0.018964 0.000000
0.003069 0.018874 0.000000
0.002035 0.018810 0.000000
0.001006 0.018772 0.000000
-0.000022 0.018759 0.000000
-0.001049 0.018772 0.000000
-0.002078 0.018810 0.000000
-0.003112 0.018874 0.000000
-0.004153 0.018964 0.000000
-0.005203 0.019079 0.000000
-0.006265 0.019220 0.000000
-0.007341 0.019387 0.000000
0.007472 0.020504 0.000000
0.006372 0.020342 0.000000
0.005285 0.020205 0.000000
0.004211 0.020092 0.000000
0.003145 0.020005 0.000000
0.002086 0.019943 0.000000
0.001031 0.019905 0.000000
-0.000022 0.019893 0.000000
-0.001074 0.019905 0.000000
-0.002129 0.019942 0.000000
-0.003188 0.020005 0.000000
-0.004254 0.020092 0.000000
-0.005330 0.020204 0.000000
-0.006417 0.020341 0.000000
-0.007518 0.020503 0.000000
0.007643 0.021645 0.000000
0.006519 0.021487 0.000000
0.005408 0.021354 0.000000
0.004309 0.021245 0.000000
0.003219 0.021161 0.000000
0.002135 0.021100 0.000000
0.001056 0.021064 0.000000
-0.000021 0.021052 0.000000
-0.001099 0.021064 0.000000
-0.002178 0.021100 0.000000
-0.003262 0.021160 0.000000
-0.004353 0.021245 0.000000
-0.005452 0.021354 0.000000
-0.006564 0.021486 0.000000
-0.007689 0.021643 0.000000
0.007810 0.022810 0.000000
0.006662 0.022657 0.000000
0.005527 0.022528 0.000000
0.004404 0.022423 0.000000
0.003290 0.022340 0.000000
0.002182 0.022282 0.000000
0.001079 0.022247 0.000000
-0.000021 0.022235 0.000000
-0.001122 0.022246 0.000000
-0.002225 0.022281 0.000000
-0.003333 0.022340 0.000000
-0.004448 0.022422 0.000000
-0.005571 0.022527 0.000000
-0.006707 0.022656 0.000000
-0.007856 0.022809 0.000000
0.007972 0.023998 0.000000
0.006800 0.023850 0.000000
0.005643 0.023725 0.000000
0.004497 0.023623 0.000000
0.003359 0.023544 0.000000
0.002229 0.023487 0.000000
0.001103 0.023453 0.000000
-0.000021 0.023441 0.000000
-0.001145 0.023453 0.000000
-0.002272 0.023487 0.000000
-0.003402 0.023543 0.000000
-0.004540 0.023623 0.000000
-0.005687 0.023725 0.000000
-0.006845 0.023850 0.000000
-0.008018 0.023997 0.000000
0.008128 0.025209 0.000000
0.006934 0.025066 0.000000
0.005754 0.024945 0.000000
0.004586 0.024846 0.000000
0.003426 0.024769 0.000000
0.002273 0.024714 0.000000
0.001125 0.024681 0.000000
-0.000021 0.024670 0.000000
-0.001168 0.024681 0.000000
-0.002316 0.024714 0.000000
-0.003469 0.024769 0.000000
-0.004629 0.024846 0.000000
-0.005798 0.024945 0.000000
-0.006979 0.025066 0.000000
-0.008174 0.025209 0.000000
0.008279 0.026442 0.000000
0.007064 0.026304 0.000000
0.005862 0.026187 0.000000
0.004672 0.026092 0.000000
0.003491 0.026017 0.000000
0.002317 0.025964 0.000000
0.001147 0.025932 0.000000
-0.000021 0.025922 0.000000
-0.001189 0.025932 0.000000
-0.002359 0.025964 0.000000
-0.003534 0.026017 0.000000
-0.004716 0.026091 0.000000
-0.005906 0.026187 0.000000
-0.007109 0.026304 0.000000
-0.008325 0.026442 0.000000
0.008425 0.027696 0.000000
0.007189 0.027563 0.000000
0.005967 0.027450 0.000000
0.004756 0.027358 0.000000
0.003554 0.027286 0.000000
0.002358 0.027235 0.000000
0.001167 0.027204 0.000000
-0.000021 0.027194 0.000000
-0.001210 0.027204 0.000000
-0.002401 0.027235 0.000000
-0.003597 0.027286 0.000000
-0.004799 0.027358 0.000000
-0.006011 0.027451 0.000000
-0.007234 0.027563 0.000000
-0.008471 0.027697 0.000000
0.008566 0.028971 0.000000
0.007310 0.028842 0.000000
0.006067 0.028734 0.000000
0.004836 0.028645 0.000000
0.003614 0.028576 0.000000
0.002399 0.028526 0.000000
0.001188 0.028497 0.000000
-0.000021 0.028487 0.000000
-0.001230 0.028497 0.000000
-0.002441 0.028527 0.000000
-0.003657 0.028576 0.000000
-0.004880 0.028645 0.000000
-0.006111 0.028734 0.000000
-0.007355 0.028843 0.000000
-0.008613 0.028972 0.000000
0.008702 0.030265 0.000000
0.007426 0.030142 0.000000
0.006164 0.030037 0.000000
0.004914 0.029951 0.000000
0.003672 0.029885 0.000000
0.002437 0.029837 0.000000
0.001207 0.029809 0.000000
-0.000021 0.029800 0.000000
-0.001250 0.029809 0.000000
-0.002480 0.029838 0.000000