# vtk DataFile Version 2.0
cantilever_tri3_mix
ASCII
DATASET POLYDATA
POINTS 1900 float
0.000000 0.000000 0.000000
48.000000 44.000000 0.000000
48.000000 60.000000 0.000000
0.000000 44.000000 0.000000
0.872727 0.800000 0.000000
1.745455 1.600000 0.000000
2.618182 2.400000 0.000000
3.490909 3.200000 0.000000
4.363636 4.000000 0.000000
5.236364 4.800000 0.000000
6.109091 5.600000 0.000000
6.981818 6.400000 0.000000
7.854545 7.200000 0.000000
8.727273 8.000000 0.000000
9.600000 8.800000 0.000000
10.472727 9.600000 0.000000
11.345455 10.400000 0.000000
12.218182 11.200000 0.000000
13.090909 12.000000 0.000000
13.963636 12.800000 0.000000
14.836364 13.600000 0.000000
15.709091 14.400000 0.000000
16.581818 15.200000 0.000000
17.454545 16.000000 0.000000
18.327273 16.800000 0.000000
19.200000 17.600000 0.000000
20.072727 18.400000 0.000000
20.945455 19.200000 0.000000
21.818182 20.000000 0.000000
22.690909 20.800000 0.000000
23.563636 21.600000 0.000000
24.436364 22.400000 0.000000
25.309091 23.200000 0.000000
26.181818 24.000000 0.000000
27.054545 24.800000 0.000000
27.927273 25.600000 0.000000
28.800000 26.400000 0.000000
29.672727 27.200000 0.000000
30.545455 28.000000 0.000000
31.418182 28.800000 0.000000
32.290909 29.600000 0.000000
33.163636 30.400000 0.000000
34.036364 31.200000 0.000000
34.909091 32.000000 0.000000
35.781818 32.800000 0.000000
36.654545 33.600000 0.000000
37.527273 34.400000 0.000000
38.400000 35.200000 0.000000
39.272727 36.000000 0.000000
40.145455 36.800000 0.000000
41.018182 37.600000 0.000000
41.890909 38.400000 0.000000
42.763636 39.200000 0.000000
43.636364 40.000000 0.000000
44.509091 40.800000 0.000000
45.381818 41.600000 0.000000
46.254545 42.400000 0.000000
47.127273 43.200000 0.000000
48.000000 44.888889 0.000000
48.000000 45.777778 0.000000
48.000000 46.666667 0.000000
48.000000 47.555556 0.000000
48.000000 48.444444 0.000000
48.000000 49.333333 0.000000
48.000000 50.222222 0.000000
48.000000 51.111111 0.000000
48.000000 52.000000 0.000000
48.000000 52.888889 0.000000
48.000000 53.777778 0.000000
48.000000 54.666667 0.000000
48.000000 55.555556 0.000000
48.000000 56.444444 0.000000
48.000000 57.333333 0.000000
48.000000 58.222222 0.000000
48.000000 59.111111 0.000000
47.127273 59.709091 0.000000
46.254545 59.418182 0.000000
45.381818 59.127273 0.000000
44.509091 58.836364 0.000000
43.636364 58.545455 0.000000
42.763636 58.254545 0.000000
41.890909 57.963636 0.000000
41.018182 57.672727 0.000000
40.145455 57.381818 0.000000
39.272727 57.090909 0.000000
38.400000 56.800000 0.000000
37.527273 56.509091 0.000000
36.654545 56.218182 0.000000
35.781818 55.927273 0.000000
34.909091 55.636364 0.000000
34.036364 55.345455 0.000000
33.163636 55.054545 0.000000
32.290909 54.763636 0.000000
31.418182 54.472727 0.000000
30.545455 54.181818 0.000000
29.672727 53.890909 0.000000
28.800000 53.600000 0.000000
27.927273 53.309091 0.000000
27.054545 53.018182 0.000000
26.181818 52.727273 0.000000
25.309091 52.436364 0.000000
24.436364 52.145455 0.000000
23.563636 51.854545 0.000000
22.690909 51.563636 0.000000
21.818182 51.272727 0.000000
20.945455 50.981818 0.000000
20.072727 50.690909 0.000000
19.200000 50.400000 0.000000
18.327273 50.109091 0.000000
17.454545 49.818182 0.000000
16.581818 49.527273 0.000000
15.709091 49.236364 0.000000
14.836364 48.945455 0.000000
13.963636 48.654545 0.000000
13.090909 48.363636 0.000000
12.218182 48.072727 0.000000
11.345455 47.781818 0.000000
10.472727 47.490909 0.000000
9.600000 47.200000 0.000000
8.727273 46.909091 0.000000
7.854545 46.618182 0.000000
6.981818 46.327273 0.000000
6.109091 46.036364 0.000000
5.236364 45.745455 0.000000
4.363636 45.454545 0.000000
3.490909 45.163636 0.000000
2.618182 44.872727 0.000000
1.745455 44.581818 0.000000
0.872727 44.290909 0.000000
0.000000 43.200000 0.000000
0.000000 42.400000 0.000000
0.000000 41.600000 0.000000
0.000000 40.800000 0.000000
0.000000 40.000000 0.000000
0.000000 39.200000 0.000000
0.000000 38.400000 0.000000
0.000000 37.600000 0.000000
0.000000 36.800000 0.000000
0.000000 36.000000 0.000000
0.000000 35.200000 0.000000
0.000000 34.400000 0.000000
0.000000 33.600000 0.000000
0.000000 32.800000 0.000000
0.000000 32.000000 0.000000
0.000000 31.200000 0.000000
0.000000 30.400000 0.000000
0.000000 29.600000 0.000000
0.000000 28.800000 0.000000
0.000000 28.000000 0.000000
0.000000 27.200000 0.000000
0.000000 26.400000 0.000000
0.000000 25.600000 0.000000
0.000000 24.800000 0.000000
0.000000 24.000000 0.000000
0.000000 23.200000 0.000000
0.000000 22.400000 0.000000
0.000000 21.600000 0.000000
0.000000 20.800000 0.000000
0.000000 20.000000 0.000000
0.000000 19.200000 0.000000
0.000000 18.400000 0.000000
0.000000 17.600000 0.000000
0.000000 16.800000 0.000000
0.000000 16.000000 0.000000
0.000000 15.200000 0.000000
0.000000 14.400000 0.000000
0.000000 13.600000 0.000000
0.000000 12.800000 0.000000
0.000000 12.000000 0.000000
0.000000 11.200000 0.000000
0.000000 10.400000 0.000000
0.000000 9.600000 0.000000
0.000000 8.800000 0.000000
0.000000 8.000000 0.000000
0.000000 7.200000 0.000000
0.000000 6.400000 0.000000
0.000000 5.600000 0.000000
0.000000 4.800000 0.000000
0.000000 4.000000 0.000000
0.000000 3.200000 0.000000
0.000000 2.400000 0.000000
0.000000 1.600000 0.000000
0.000000 0.800000 0.000000
0.694258 14.149242 0.000000
0.585552 13.195906 0.000000
1.294127 13.432843 0.000000
3.945012 44.548794 0.000000
3.208568 44.415171 0.000000
4.253170 43.971445 0.000000
4.811175 44.705668 0.000000
39.397800 53.513213 0.000000
39.878707 52.860192 0.000000
40.192389 53.695448 0.000000
40.641925 53.171124 0.000000
7.645820 45.821368 0.000000
6.908434 45.718696 0.000000
7.332052 45.178658 0.000000
37.768710 47.406893 0.000000
38.103949 46.473663 0.000000
38.752058 47.374558 0.000000
39.035748 46.393027 0.000000
31.779879 48.682443 0.000000
32.443003 49.345434 0.000000
31.283875 49.716388 0.000000
32.079740 50.226328 0.000000
5.794443 41.746877 0.000000
5.796105 41.148240 0.000000
6.451731 41.350370 0.000000
6.266310 40.539650 0.000000
2.618474 18.806372 0.000000
2.880598 19.689706 0.000000
2.240131 19.463837 0.000000
3.535938 19.198551 0.000000
20.679625 41.238769 0.000000
21.649077 41.097435 0.000000
21.212439 42.109900 0.000000
46.092049 49.457252 0.000000
46.766904 49.687382 0.000000
46.176057 50.229733 0.000000
22.313225 41.831085 0.000000
18.064072 32.926502 0.000000
17.275358 33.512162 0.000000
17.273543 32.532041 0.000000
37.164174 55.197491 0.000000
37.864513 55.314664 0.000000
37.473901 55.829333 0.000000
9.762751 23.811158 0.000000
9.500261 22.810664 0.000000
10.611761 23.306359 0.000000
45.705401 57.893364 0.000000
46.052695 58.558345 0.000000
45.165595 58.311112 0.000000
37.900548 54.415040 0.000000
10.518799 24.273470 0.000000
10.762426 25.077748 0.000000
9.970961 24.693481 0.000000
46.294695 57.791929 0.000000
2.437401 17.410921 0.000000
1.659453 17.312549 0.000000
2.286490 16.799822 0.000000
1.842203 18.062493 0.000000
7.445192 13.471215 0.000000
7.109020 12.651606 0.000000
8.156381 12.615359 0.000000
12.029410 24.260251 0.000000
12.680435 23.744023 0.000000
12.902330 24.648249 0.000000
11.746475 23.518024 0.000000
24.604336 28.456658 0.000000
25.190330 27.640606 0.000000
25.637730 28.565582 0.000000
6.353380 13.223196 0.000000
26.232608 27.440434 0.000000
13.855042 20.101601 0.000000
13.259925 20.454657 0.000000
12.899019 19.707948 0.000000
13.739721 21.077232 0.000000
46.518255 48.842045 0.000000
45.625723 48.832374 0.000000
16.480017 32.962893 0.000000
5.623249 28.531920 0.000000
6.347279 28.898954 0.000000
5.585954 29.334965 0.000000
6.483136 29.652545 0.000000
5.523814 39.113026 0.000000
6.241984 39.165538 0.000000
5.862050 39.829584 0.000000
6.092849 38.507078 0.000000
15.963610 44.606522 0.000000
15.090775 44.034820 0.000000
15.714314 43.530652 0.000000
9.296400 43.728660 0.000000
9.164168 44.557968 0.000000
8.360800 44.029826 0.000000
19.737669 23.876084 0.000000
20.369190 24.644551 0.000000
19.289604 25.087764 0.000000
32.602507 47.477466 0.000000
32.075366 48.035092 0.000000
31.883695 47.104506 0.000000
32.905535 48.354266 0.000000
14.866451 44.796130 0.000000
30.152695 52.690946 0.000000
30.837261 53.180322 0.000000
30.152893 53.415505 0.000000
11.123304 25.930974 0.000000
11.985477 26.125600 0.000000
11.235292 26.822324 0.000000
5.654347 44.212705 0.000000
4.914154 43.745050 0.000000
12.266245 27.012100 0.000000
13.432299 23.160078 0.000000
12.479705 22.900265 0.000000
13.618470 23.885446 0.000000
5.692992 45.104250 0.000000
47.169452 48.200332 0.000000
47.302358 49.068824 0.000000
6.221282 12.107797 0.000000
5.262673 12.974962 0.000000
20.498271 25.580677 0.000000
2.190973 35.958994 0.000000
2.938747 36.099059 0.000000
2.580153 36.896140 0.000000
8.921671 11.701481 0.000000
7.603826 11.836842 0.000000
3.465318 36.491046 0.000000
40.889080 50.463708 0.000000
40.169477 51.129378 0.000000
40.115104 50.178462 0.000000
40.945290 51.489571 0.000000
22.856056 32.632251 0.000000
23.726343 31.944356 0.000000
23.971533 32.910934 0.000000
22.774652 31.449161 0.000000
42.546371 49.185110 0.000000
41.727702 49.806890 0.000000
41.722490 48.797230 0.000000
42.553000 50.211410 0.000000
12.696318 25.373818 0.000000
12.893020 26.141609 0.000000
6.555295 45.168884 0.000000
11.793959 25.147980 0.000000
2.414781 10.225124 0.000000
2.705464 11.235501 0.000000
1.828904 10.741136 0.000000
3.433352 10.594861 0.000000
0.535478 3.066047 0.000000
1.244863 11.178388 0.000000
1.150622 10.487952 0.000000
13.688765 26.129500 0.000000
13.151524 26.762298 0.000000
13.963995 26.990191 0.000000
15.861419 20.092203 0.000000
17.053191 20.414334 0.000000
15.979087 21.033688 0.000000
3.452534 13.543105 0.000000
3.251915 14.480610 0.000000
2.511916 13.940540 0.000000
31.114428 52.055178 0.000000
19.957278 39.145460 0.000000
20.384318 40.283404 0.000000
19.491615 39.992153 0.000000
8.283912 15.410974 0.000000
7.268090 15.713283 0.000000
7.590207 14.569791 0.000000
16.761550 21.364085 0.000000
15.555646 23.884567 0.000000
[...]
POINT_DATA 1900
SCALARS P float
LOOKUP_TABLE default
5.990329
4.199276
0.847315
-26.824604
5.762918
5.618850
5.414404
5.370283
5.194215
5.187163
5.175101
5.195000
5.253995
5.452978
5.625274
5.932687
6.240659
6.543424
6.923732
7.292013
7.695483
8.201858
8.606189
8.980660
9.386269
9.753470
10.008970
10.425739
10.675142
10.984282
11.214175
11.588271
11.552905
11.822303
11.879534
11.890742
12.124829
12.131513
12.149628
12.166795
12.132283
12.043993
12.183278
12.086757
11.930997
11.957860
11.821939
11.535203
11.484336
11.254600
10.961862
10.688779
10.316889
9.857321
9.389270
8.447266
7.623665
6.390960
2.914633
3.338322
4.033420
4.544314
5.130784
5.820835
5.999031
6.169087
6.661047
6.705231
6.508621
6.803053
6.792289
6.952894
6.076720
5.701982
3.121970
-0.859368
-3.891982
-4.244515
-4.630295
-5.081464
-5.068778
-5.217725
-5.499588
-5.866740
-6.171836
-6.383775
-6.670954
-6.794340
-7.231764
-7.457101
-7.769923
-8.091530
-8.294297
-8.509816
-8.656509
-8.993869
-9.154590
-9.242106
-9.347913
-9.453398
-9.597051
-9.753460
-9.813934
-9.879760
-9.966163
-10.014677
-10.041387
-10.076817
-10.089147
-10.180691
-10.296013
-10.210914
-10.443979
-10.375581
-10.483646
-10.441689
-10.496696
-10.674096
-10.599993
-10.772761
-10.827724
-11.161544
-11.214423
-11.346375
-11.504683
-11.811852
-12.827735
-13.906215
-17.132528
-30.068154
-25.874925
-20.646758
-18.121163
-15.168076
-13.186487
-11.437254
-9.911116
-8.136211
-7.063871
-5.864820
-4.789522
-2.992476
-2.274077
-1.624543
-0.620108
0.672083
1.145715
1.836405
2.591213
3.499251
3.914756
4.197591
5.032038
5.465890
5.661492
6.050276
6.462661
6.683670
6.793480
6.923894
7.141402
7.216297
7.174792
7.182578
7.357142
7.161119
7.027395
6.998632
6.826625
6.677823
6.527513
6.260731
6.249963
6.056527
5.742807
5.827643
5.563088
5.598719
5.582233
5.502785
5.667716
5.752206
5.856675
6.954852
6.940057
6.886579
-11.716962
-12.152947
-12.080687
-11.734689
-2.934510
-1.890103
-2.477337
-1.632214
-10.758727
-10.903558
-10.673875
0.998748
1.926985
1.582532
2.467902
-3.364972
-3.564054
-4.544155
-4.631808
-10.214957
-9.823347
-9.409418
-8.972853
6.421212
6.152489
6.441983
6.110720
-2.526274
-2.062464
-2.924479
4.473541
5.055842
4.756599
-2.279703
2.176064
1.435774
2.108986
-6.013534
-5.710457
-6.413920
4.561896
4.937800
4.895683
-1.133464
-2.241605
-3.367282
-4.841176
4.445022
4.136111
4.113093
0.650966
6.589342
6.843938
6.718480
6.645104
6.248511
6.268995
6.247267
4.844913
5.248052
4.884202
5.090238
8.441808
9.332403
9.017756
6.274355
10.136849
6.819356
6.488082
6.586182
6.534937
4.663758
4.220157
1.470579
1.467955
1.209187
0.919461
0.718893
-8.428100
-8.027363
-8.782919
-7.616936
-7.064582
-6.921225
-6.336891
-9.023022
-9.455933
-9.710468
8.142732
8.134212
7.354389
-1.874213
-2.573223
-1.951138
-2.477843
-7.649264
-7.837577
-7.957731
-8.541670
3.744042
3.910690
3.369337
-10.760834
-11.790179
3.520368
5.674790
5.500360
5.459125
-11.295450
4.829112
5.268865
6.125125
6.285799
7.723053
-6.638907
-6.535390
-7.754134
6.118191
6.098026
-7.082024
0.552115
-0.506836
0.152142
-0.140725
4.762335
5.686252
5.130463
5.482794
2.351604
1.507390
2.118437
1.929870
4.460383
4.170289
-10.668639
4.384276
6.298868
6.302918
6.417248
6.217451
5.586647
6.546611
6.438837
4.384345
3.921199
4.100182
7.620794
8.067869
7.411763
6.456725
6.558588
6.641359
-6.740937
-1.303404
-1.927094
-2.252393
6.316851
6.265700
6.313678
7.659655
6.190394
6.207059
6.678879
6.507262
-5.233304
-4.323081
-4.730638
-4.899584
-1.000374
5.949922
5.874104
5.748434
5.983144
2.495559
2.032955
2.140778
6.666888
6.985338
6.239366
5.667578
5.496769
5.602082
6.458393
-5.483131
-4.534585
-4.984128
-5.044807
-7.653688
-7.018467
-8.375189
5.672162
5.347267
6.458626
5.997636
4.896716
3.898247
4.849348
1.510361
6.004505
5.909809
6.013409
2.604618
2.957444
1.723752
8.189906
8.741017
11.176532
10.559247
8.782240
8.789388
8.138816
-6.073296
-5.669451
-6.496725
-2.038890
-1.027330
-1.899730
6.315792
6.299043
6.356410
5.622075
5.580471
5.554850
5.501188
9.446719
6.149357
6.100422
6.239259
3.205132
2.582385
2.765841
2.855945
6.483932
6.327615
3.051897
2.936419
-6.089346
-5.507182
-5.996789
5.424424
5.313217
5.315408
-5.258091
3.830121
3.762881
4.114508
3.642335
3.365415
3.264976
6.895733
7.092111
7.021697
7.414213
6.705214
5.315787
5.161015
5.398981
5.098031
-5.634680
-6.101854
-5.315724
-5.791698
-8.013049
-7.238007
-7.755359
-7.366152
-7.384972
-8.373683
-1.588147
0.334307
5.733257
5.752822
5.699110
-3.759530
-8.042353
-6.084408
5.527450
8.621319
8.987656
8.455153
-6.739835
-6.176315
-7.106069
7.335743
6.762273
5.925926
5.436449
-5.669793
-3.544910
-3.928385
-2.485729
2.088852
-8.891349
-7.905130
-8.204856
-7.322759
-3.693979
-3.030629
-3.713808
5.247526
5.372757
5.400819
6.427220
5.922745
4.208445
-2.853232
1.953348
3.266803
0.902558
4.959029
1.274589
-6.536018
9.614460
8.663924
7.891807
10.376445
11.331286
11.110215
5.566758
5.646782
5.446947
-1.975459
-1.805777
-2.708964
-2.347645
-2.813452
-3.594545
-18.804991
6.647953
6.740666
6.675863
5.613965
-1.419500
-1.039895
-0.810064
-0.895716
-1.988642
-2.419184
-2.812327
-1.594691
0.106751
6.874565
-4.470290
5.491419
5.285991
-3.211063
-2.966475
-2.600698
5.455849
5.521223
-5.864478
-7.110568
6.604719
5.852800
6.038401
6.251592
5.682680
5.701405
6.108653
6.126218
6.349759
4.418022
4.237975
4.346998
4.204520
4.300255
4.662597
4.187588
-2.544894
-3.389891
-3.179946
-4.187163
5.772581
3.687824
3.263193
3.272677
6.403323
5.530083
5.692408
3.642653
2.747448
3.200796
2.848996
5.648659
0.027100
-0.036682
-0.654541
1.828096
3.475185
-0.764455
8.997035
8.905590
8.106507
3.741708
4.060400
3.989317
5.789362
5.774426
3.955143
2.188734
2.105437
2.556005
3.381619
3.118357
2.798896
5.789169
5.756686
6.092753
5.543068
5.705939
2.436516
1.155141
1.760718
0.949003
1.403583
-1.278794
0.131506
1.860136
-2.861614
-4.104377
5.690349
5.872626
2.666549
1.212654
1.907414
1.404876
-16.082181
1.954040
5.870106
-16.729907
-16.231713
-18.663007
-16.524859
1.505347
0.841420
3.160701
4.612922
1.727707
0.909066
-13.405743
-14.630276
-12.950893
6.467262
5.582286
-0.702356
-1.013187
-0.269086
-0.353025
3.418780
2.700290
2.921388
5.900768
2.117938
6.302250
-2.578239
-1.578924
0.054020
1.655271
-1.384464
-0.540790
-0.789277
0.211976
5.667277
5.409909
6.420982
4.631312
5.258067
4.516764
7.357430
7.728899
7.440537
-15.451156
-8.201924
-7.642124
-8.569128
-8.182812
-7.474834
7.976906
-6.739762
3.887827
4.034247
4.267072
4.496426
5.859020
5.912196
2.729436
1.573659
6.222622
6.113571
6.215579
4.346214
3.637191
3.512337
3.094067
2.809786
2.897305
8.993072
9.578535
10.341884
6.077617
2.936201
2.279301
3.228262
2.400432
4.633868
4.655880
10.527698
-2.949370
-4.524405
-12.191580
-13.227975
-1.518678
-0.074181
-5.812971
-5.258259
-6.579353
8.630388
9.098030
5.827227
6.023593
6.108082
5.820049
9.334715
9.636967
6.108453
4.307381
5.727375
-15.158785
5.742520
5.410279
5.589155
5.426435
-9.075610
-8.553881
6.042634
6.070698
-8.466287
4.928853
3.814177
3.243963
-2.878725
6.190702
6.127130
6.046088
-1.505803
-0.096345
-3.963214
6.227748
1.110448
1.773714
0.775088
1.001158
-0.086148
5.932174
-10.570963
-8.965082
8.100833
7.389828
6.691649
6.516684
8.882203
9.802523
9.612366
10.585631
4.953200
5.011843
4.588290
4.221393
4.871018
6.264454
6.371257
2.150993
5.020013
3.409690
6.283106
3.413987
3.636150
3.024676
1.693238
-7.959210
-6.218655
0.552696
1.142476
0.424387
-2.769986
1.181200
-1.615373
-0.818649
10.618244
11.581007
11.415122
3.973426
-1.350199
-0.731560
-1.445282
-7.596043
-8.238308
-7.375327
-8.153787
-8.884626
-1.586733
-0.270772
-6.776559
-6.224467
-5.177706
4.508613
4.925446
4.706499
-0.682382
-6.895838
-7.799544
-7.106568
1.653834
2.080668
-5.787224
-6.192810
-5.432809
1.839542
0.893754
6.373673
6.326409
-6.675904
-15.023988
-13.849772
3.942776
3.609072
4.080305
7.174647
6.224280
6.553901
5.574301
4.231372
4.915001
4.843147
5.153694
4.764446
4.113216
1.351102
1.466415
0.696576
2.394444
5.843348
5.810016
6.412536
6.224013
0.784597
0.238224
0.106715
1.513559
0.906752
0.829860
1.684759
5.150218
5.362834
-3.438319
-3.989959
-3.795572
-4.834114
-2.904475
-2.830952
-2.049066
-1.969321
10.021115
10.167536
9.450072
6.695053
6.436465
-5.235092
-5.917447
-5.566658
5.745102
-6.037215
-5.285426
0.662146
-2.207074
-1.531965
-1.975360
-1.216565
-1.155552
-1.872426
-0.339104
-7.334014
-7.854346
-8.247752
6.392510
-4.934444
-5.534592
-3.896947
-7.183328
-6.346412
-8.693415
-8.312830
-8.086205
-8.985016
-8.770032
-0.347039
-8.774926
-8.081315
-11.973107
-12.781767
-11.358401
-1.543350
-9.687748
3.948793
3.523856
4.447782
4.006088
7.135292
-9.999769
8.737220
7.785656
8.026178
6.931405
-2.477316
-1.949976
-2.324105
-2.241417
-3.051760
-2.664225
7.869723
8.454025
9.215189
7.161507
7.176454
6.281364
-3.408645
-2.640729
-2.837762
-1.947345
-3.949518
-6.608200
-5.913824
-9.410317
-8.780223
7.387340
2.049028
2.773314
-12.094904
-11.587915
-11.687723
-12.102009
11.538610
11.408573
-7.263557
-6.243996
-7.911700
-4.812908
-4.866869
-4.399434
-5.453933
-3.760713
0.005809
0.586338
1.304797
1.452121
0.547235
0.623121
-1.475216
-1.852485
-1.249810
-10.503636
-10.661536
-10.146873
-3.686860
-3.121496
-4.280311
-6.853084
-6.238311
-7.281237
-7.832131
2.286521
2.956040
2.959159
2.451244
-6.626224
-5.841077
-6.988976
-1.843516
-1.039377
-1.640649
-2.903755
-6.130812
-9.646652
-9.645268
-8.875524
-1.139781
-2.140051
5.421721
5.473389
-7.980752
-7.205003
-6.793490
5.728885
6.254857
10.679784
9.984591
11.614944
11.578737
5.331569
-8.011825
-2.587868
-3.480972
7.693368
8.026521
7.147815
6.556771
6.321446
5.783937
-4.180202
-4.095085
-4.959476
-7.066725
-6.385032
-5.858541
-8.041924
-7.334645
-7.093061
-8.821245
-8.821528
4.267747
4.463656
3.871206
4.046591
3.903576
4.490961
-9.868654
-9.570506
-7.575867
-8.314180
-9.023182
-9.272015
-6.672342
-5.879136
-2.975227
-3.584241
-3.163701
-4.102024
-3.864224
-3.364034
-4.594870
-4.526028
-4.399196
-3.670404
-9.116383
-8.484158
-8.505524
-9.820230
-9.686767
-7.669218
-3.599465
-2.469578
-2.830248
10.713243
11.182559
10.042653
2.093021
2.991771
0.512679
-0.013096
0.834330
-5.176613
-5.202913
-4.528040
-8.853373
-9.598424
-9.623363
-5.807229
2.847381
3.660171
3.208926
3.281200
3.490623
2.754450
3.285028
-3.986810
-4.354413
-3.810327
-4.708653
-3.936548
-4.684768
3.158441
8.658653
9.627795
3.924684
10.271393
-6.674910
-7.616235
-7.269819
-8.113077
5.726723
6.200734
5.603104
5.244699
5.173259
-3.650788
-3.942035
-4.127280
-4.510306
-7.063724
-6.394097
-6.587124
-6.810856
-5.886534
-6.369121
-5.637061
-4.868352
-5.459763
-5.662929
-4.676807
-3.398845
-2.386071
-2.527054
2.430630
2.564597
2.868541
1.970442
-5.998088
-5.044875
-6.451447
-7.278496
-5.005763
-4.171174
-2.560042
-1.986629
-2.661566
-1.901408
-2.356828
-3.066529
6.484352
6.423869
6.368705
6.480624
6.452143
7.019785
7.315024
7.213942
7.601418
6.555632
6.324569
-1.072061
-0.179474
6.198915
2.614837
1.591113
5.808399
5.944339
5.678583
8.093660
8.338446
6.608110
6.360906
-3.334531
-11.372833
-12.055547
-12.665877
6.717465
3.379006
3.692771
8.791022
6.462125
6.443162
4.119061
2.907257
1.448964
2.538704
6.570992
6.393672
6.738838
-3.903497
-4.682238
6.224781
6.258355
6.328833
6.174743
5.801164
-8.000588
4.661108
-8.562989
-9.391420
6.485920
5.547588
5.603683
5.320055
5.457485
0.032423
0.541736
1.460301
-10.142430
-10.027731
-9.352824
-9.071494
0.618196
7.097554
6.967837
2.880118
7.016976
7.295580
6.575224
6.612895
6.748921
-11.918088
-10.249022
-11.089112
-9.279726
6.304225
6.493693
0.578219
0.629478
1.390773
-0.157738
6.491556
6.520641
6.412329
-0.485164
-0.689063
-0.344390
6.649970
6.500078
7.796648
7.662690
6.346673
8.509468
-2.104580
-5.578688
5.930622
6.589688
-1.840914
6.220239
6.209641
6.011806
-10.181477
-9.125621
-9.159960
-3.746500
-1.934948
-4.709303
-5.580677
-5.959490
5.666899
6.015804
6.497934
6.032265
-6.894389
-16.504693
-24.223144
-13.784577
8.717216
-10.646474
-11.023946
-10.991656
-10.698839
5.502901
0.530446
-0.013187
0.998970
-0.317645
-6.871274
-7.846958
-9.688800
-8.759113
5.921447
7.016363
6.276535
6.198265
5.963151
5.726992
7.047464
6.742321
7.005852
6.714079
4.755401
4.559570
4.943077
4.130283
5.523357
-10.202838
-10.489243
-10.546609
-1.675391
-1.151152
-0.956333
-1.793614
-1.144057
3.559309
5.781440
5.907825
-5.817852
3.125481
3.220741
-6.720827
-14.749780
-4.253807
6.967893
6.819782
6.842972
6.703552
4.354563
6.411484
-2.972368
-3.486318
-2.448839
-4.008721
5.944739
6.924606
5.680076
6.924625
8.313245
-1.579446
6.249179
6.240418
3.890483
1.993211
6.695993
5.307163
5.189471
5.341774
5.951902
6.664393
4.648912
-13.429991
0.872106
1.271635
0.678488
-9.821997
-13.939048
-1.931104
-1.017737
6.263762
4.677292
-1.007480
6.596232
5.937454
6.449400
6.365092
6.207613
6.072294
-4.468273
-2.974577
7.517064
7.267929
-3.927319
6.096731
-6.055406
5.221867
5.775396
5.585038
7.939923
6.260958
5.024540
5.532631
4.354261
-2.230755
-3.340385
-2.828790
4.888952
6.037665
-0.615658
0.496371
-6.073634
4.429282
8.192235
9.264252
10.043634
2.482610
2.203521
2.623470
6.965025
-1.352388
-1.155686
4.716680
6.272875
9.843236
9.691489
9.469565
10.336994
4.119251
2.952583
4.512042
5.053990
4.995054
2.445123
1.478769
5.864991
5.805796
5.671493
-8.697908
-4.104639
-2.998500
-1.332053
-0.265576
-1.609314
5.331128
5.226922
7.585950
5.495969
-12.832423
5.458418
5.381503
5.607685
-3.983989
5.540357
-5.022055
3.808069
3.611848
7.607399
-19.617063
5.485895
-21.140742
-25.465583
-5.405422
-4.497233
3.953631
-3.363171
-11.191395
5.760151
5.581117
-5.684695
2.444633
3.979239
3.746887
-10.914693
7.202161
6.508106
5.367623
0.878496
5.025610
6.641182
-4.466410
-4.125295
1.129395
2.010012
-0.244397
0.422737
0.877901
-0.649260
-5.530030
3.555979
4.211091
4.148080
4.662804
4.883840
0.261034
-0.098978
2.584637
2.459889
1.915327
-1.526341
1.391340
-5.881625
-6.488424
-2.116441
-3.214588
-2.938707
-5.048419
-5.847516
-4.864902
7.056206
6.929709
7.122685
5.422988
5.166986
5.356747
5.024996
4.872701
0.336660
1.153585
-9.706081
11.572262
0.641540
-0.201377
6.743094
-7.985727
-8.884382
3.860638
4.604520
3.630734
8.035422
7.186280
7.436879
2.975329
0.086449
0.456496
-0.285938
-1.203742
-0.763724
8.123845
9.518415
9.059667
6.686688
6.423463
6.168181
3.385658
0.381710
-11.942336
10.695962
3.193332
2.313394
3.134094
2.301939
5.825295
5.322435
-3.913760
-3.142427
-3.857413
-5.524075
-6.347131
-7.271589
-3.208609
-4.034322
-2.363935
9.887028
8.728823
1.395104
2.305888
6.457798
6.641586
6.951395
-3.859473
-4.777909
-4.383387
1.860999
2.850692
1.295675
1.691146
8.379162
7.964693
9.205349
6.519278
-4.499415
6.833068
6.859416
7.113056
8.796394
10.176409
-1.871925
-1.297054
3.763859
4.454948
3.610277
1.824732
-2.431435
-1.380066
-2.154311
-9.929014
-9.122180
-1.186078
-0.425343
4.824675
4.686365
0.047197
9.047325
8.270577
8.889315
-8.874389
-8.780325
-8.318613
0.205920
-0.065411
-9.053955
-9.325249
6.950068
-3.145537
-3.758210
-2.425701
-1.856351
4.518229
4.430399
-3.095779
-8.515764
-1.272303
3.366104
9.535897
10.721727
10.477646
5.827802
6.934005
5.808378
5.668015
5.877188
6.222265
5.536474
-8.103593
-8.875336
-8.722211
0.427992
-1.405390
-0.941981
-0.404895
3.271752
3.451869
2.990621
3.710562
3.265062
7.276352
-0.407486
8.835312
8.304000
-7.354338
-8.103196
-0.876138
9.374442
2.312006
1.896571
1.741735
3.487058
6.294973
-9.671470
-8.805583
8.199201
8.817124
9.250394
5.142572
-1.851327
-2.543380
-1.970749
10.133878
1.310165
1.622072
0.605731
3.867497
4.150150
-8.453953
7.664240
2.832880
3.275025
-7.964624
1.834797
2.680632
7.860030
8.753781
1.109104
0.496462
-5.301620
-4.359344
-6.112422
-0.039989
-0.427430
8.565030
8.181862
-0.703505
9.455169
-7.345156
4.730984
4.793656
3.341660
3.525830
2.747527
-6.665373
0.440249
11.730218
10.566427
-10.179472
-6.273553
-8.270339
-7.579366
10.768878
-5.367515
0.502880
11.535523
10.285321
-4.674670
4.638495
4.524331
4.154119
0.528816
1.238890
0.309084
3.135375
2.609152
11.686324
-0.304685
7.626520
7.115211
-10.564935
1.652562
-2.563186
-2.428378
-3.048171
-3.017175
-1.847694
0.940956
0.492783
-0.432272
2.766141
1.876645
1.882933
1.085205
-10.250242
-10.250449
7.048532
7.719696
10.837742
2.172828
1.846697
6.892137
7.948498
-10.228352
-6.093287
0.407205
1.224971
5.736333
-7.513246
-9.448014
-1.206561
-1.195191
2.317139
4.953268
6.256046
-4.994804
-5.828101
-5.327427
-5.534392
-4.290950
7.802219
4.625191
0.302524
6.754682
0.257747
3.009719
2.419232
3.476210
11.017450
9.644188
3.304468
8.709761
6.002981
6.469541
1.232198
-4.510112
9.845477
10.473624
11.276232
-9.797983
-7.397028
-8.131101
3.584702
-10.151994
9.018884
7.330192
-0.873217
-5.274364
-6.144017
-1.147308
-7.571957
-9.459685
-9.765976
-9.386914
3.039084
3.920234
-4.530397
-9.800371
3.458448
4.613395
-4.511895
-8.885700
6.617299
-9.644527
-8.875139
9.475725
-6.240656
0.338022
-0.256197
-6.330583
7.813781
4.498921
4.407033
-10.228248
-10.039554
1.923813
-10.318353
5.463105
3.606914
4.129289
4.245225
-0.275484
6.360366
0.030035
2.117580
2.346084
-5.310040
-4.879092
-4.294090
6.269228
5.680395
5.050969
-3.815383
1.349145
-2.441639
1.296035
0.726050
11.214949
2.235155
0.050810
-0.564972
-0.622729
-0.000751
3.528149
-8.696794
5.729119
2.124533
-7.970206
2.261023
-5.039337
-0.097020
4.565092
1.755642
4.545204
6.912684
5.844279
4.593321
-2.548512
-3.604933
-5.519981
7.204043
-0.619771
0.402497
-6.869318
7.220564
4.530446
-10.090396
-1.033390
8.364175
9.756193
-4.540461
-6.831812
-7.198973
8.262252
1.761636
1.734862
6.093242
-10.312384
7.658439
3.525536
4.673720
9.849183
6.764743
2.913997
6.914722
6.850980
8.565216
2.572335
-9.214501
-9.831057
-0.629869
-1.594047
3.413792
-8.803926
-1.472092
-4.883923
3.482169
3.816935
-0.483272
3.984379
-3.720886
5.646582
11.270420
11.210341
-4.990775
-0.494655
-10.678757
3.615612
3.736774
4.659702
2.321641
6.993504
-1.758834
-0.365712
-5.490297
6.011530
-3.571571
6.030149
3.539744
5.655107
10.749655
1.193180
5.448684
0.113791
1.858013
1.205205
-2.439681
-5.562737
-0.317793
-0.263751
-0.958459
-3.831054
3.865182
-7.960809
-7.846881
-1.204055
4.031576
4.006259
8.405760
-3.006373
-0.719489
-0.515438
-5.561856
-3.565135
-0.361785
-3.125151
4.603918
4.523821
-6.295277
-3.649047
-3.423230
-3.419010
-7.503224
-7.104153
-2.703948
-6.496288
-0.171409
0.825616
6.549219
-2.054344
11.526138
