# vtk DataFile Version 2.0
cantilever_Q4P1_mix
ASCII
DATASET POLYDATA
POINTS 1089 float
1.000000 0.000000 0.000000
5.000000 0.000000 0.000000
5.000000 5.000000 0.000000
0.000000 5.000000 0.000000
0.000000 1.000000 0.000000
0.707107 0.707107 0.000000
1.053122 0.000000 0.000000
1.108899 0.000000 0.000000
1.167466 0.000000 0.000000
1.228961 0.000000 0.000000
1.293531 0.000000 0.000000
1.361329 0.000000 0.000000
1.432517 0.000000 0.000000
1.507265 0.000000 0.000000
1.585750 0.000000 0.000000
1.668159 0.000000 0.000000
1.754688 0.000000 0.000000
1.845544 0.000000 0.000000
1.940943 0.000000 0.000000
2.041112 0.000000 0.000000
2.146289 0.000000 0.000000
2.256726 0.000000 0.000000
2.372684 0.000000 0.000000
2.494439 0.000000 0.000000
2.622283 0.000000 0.000000
2.756519 0.000000 0.000000
2.897467 0.000000 0.000000
3.045462 0.000000 0.000000
3.200856 0.000000 0.000000
3.364021 0.000000 0.000000
3.535343 0.000000 0.000000
3.715232 0.000000 0.000000
3.904116 0.000000 0.000000
4.102443 0.000000 0.000000
4.310687 0.000000 0.000000
4.529343 0.000000 0.000000
4.758932 0.000000 0.000000
5.000000 0.257995 0.000000
5.000000 0.522440 0.000000
5.000000 0.793496 0.000000
5.000000 1.071328 0.000000
5.000000 1.356106 0.000000
5.000000 1.648004 0.000000
5.000000 1.947199 0.000000
5.000000 2.253874 0.000000
5.000000 2.568216 0.000000
5.000000 2.890416 0.000000
5.000000 3.220671 0.000000
5.000000 3.559183 0.000000
5.000000 3.906157 0.000000
5.000000 4.261806 0.000000
5.000000 4.626346 0.000000
4.626346 5.000000 0.000000
4.261806 5.000000 0.000000
3.906157 5.000000 0.000000
3.559183 5.000000 0.000000
3.220671 5.000000 0.000000
2.890416 5.000000 0.000000
2.568216 5.000000 0.000000
2.253874 5.000000 0.000000
1.947199 5.000000 0.000000
1.648004 5.000000 0.000000
1.356106 5.000000 0.000000
1.071328 5.000000 0.000000
0.793496 5.000000 0.000000
0.522440 5.000000 0.000000
0.257995 5.000000 0.000000
0.000000 4.758932 0.000000
0.000000 4.529343 0.000000
0.000000 4.310687 0.000000
0.000000 4.102443 0.000000
0.000000 3.904116 0.000000
0.000000 3.715232 0.000000
0.000000 3.535343 0.000000
0.000000 3.364021 0.000000
0.000000 3.200856 0.000000
0.000000 3.045462 0.000000
0.000000 2.897467 0.000000
0.000000 2.756519 0.000000
0.000000 2.622283 0.000000
0.000000 2.494439 0.000000
0.000000 2.372684 0.000000
0.000000 2.256726 0.000000
0.000000 2.146289 0.000000
0.000000 2.041112 0.000000
0.000000 1.940943 0.000000
0.000000 1.845544 0.000000
0.000000 1.754688 0.000000
0.000000 1.668159 0.000000
0.000000 1.585750 0.000000
0.000000 1.507265 0.000000
0.000000 1.432517 0.000000
0.000000 1.361329 0.000000
0.000000 1.293531 0.000000
0.000000 1.228961 0.000000
0.000000 1.167466 0.000000
0.000000 1.108899 0.000000
0.000000 1.053122 0.000000
0.049068 0.998795 0.000000
0.098017 0.995185 0.000000
0.146730 0.989177 0.000000
0.195090 0.980785 0.000000
0.242980 0.970031 0.000000
0.290285 0.956940 0.000000
0.336890 0.941544 0.000000
0.382683 0.923880 0.000000
0.427555 0.903989 0.000000
0.471397 0.881921 0.000000
0.514103 0.857729 0.000000
0.555570 0.831470 0.000000
0.595699 0.803208 0.000000
0.634393 0.773010 0.000000
0.671559 0.740951 0.000000
0.740951 0.671559 0.000000
0.773010 0.634393 0.000000
0.803208 0.595699 0.000000
0.831470 0.555570 0.000000
0.857729 0.514103 0.000000
0.881921 0.471397 0.000000
0.903989 0.427555 0.000000
0.923880 0.382683 0.000000
0.941544 0.336890 0.000000
0.956940 0.290285 0.000000
0.970031 0.242980 0.000000
0.980785 0.195090 0.000000
0.989177 0.146730 0.000000
0.995185 0.098017 0.000000
0.998795 0.049068 0.000000
0.746056 0.746056 0.000000
0.787731 0.787731 0.000000
0.832324 0.832324 0.000000
0.880038 0.880038 0.000000
0.931093 0.931093 0.000000
0.985721 0.985721 0.000000
1.044173 1.044173 0.000000
1.106716 1.106716 0.000000
1.173638 1.173638 0.000000
1.245244 1.245244 0.000000
1.321863 1.321863 0.000000
1.403845 1.403845 0.000000
1.491566 1.491566 0.000000
1.585427 1.585427 0.000000
1.685859 1.685859 0.000000
1.793320 1.793320 0.000000
1.908304 1.908304 0.000000
2.031337 2.031337 0.000000
2.162982 2.162982 0.000000
2.303843 2.303843 0.000000
2.454563 2.454563 0.000000
2.615834 2.615834 0.000000
2.788394 2.788394 0.000000
2.973033 2.973033 0.000000
3.170597 3.170597 0.000000
3.381991 3.381991 0.000000
3.608181 3.608181 0.000000
3.850206 3.850206 0.000000
4.109172 4.109172 0.000000
4.386265 4.386265 0.000000
4.682756 4.682756 0.000000
0.050932 1.051011 0.000000
0.052928 1.105877 0.000000
0.055066 1.163528 0.000000
0.057356 1.224108 0.000000
0.059809 1.287766 0.000000
0.062436 1.354658 0.000000
0.065249 1.424951 0.000000
0.068262 1.498819 0.000000
0.071489 1.576443 0.000000
0.074944 1.658018 0.000000
0.078645 1.743744 0.000000
0.082608 1.833834 0.000000
0.086851 1.928513 0.000000
0.091395 2.028015 0.000000
0.096261 2.132589 0.000000
0.101472 2.242493 0.000000
0.107051 2.358003 0.000000
0.113026 2.479405 0.000000
0.119423 2.607004 0.000000
0.126273 2.741116 0.000000
0.133607 2.882078 0.000000
0.141460 3.030242 0.000000
0.149868 3.185979 0.000000
0.158871 3.349680 0.000000
0.168510 3.521753 0.000000
0.178830 3.702632 0.000000
0.189880 3.892771 0.000000
0.201710 4.092648 0.000000
0.214375 4.302766 0.000000
0.227935 4.523655 0.000000
0.242453 4.755871 0.000000
0.101808 1.046500 0.000000
0.105867 1.100462 0.000000
0.110215 1.157209 0.000000
0.114871 1.216885 0.000000
0.119858 1.279643 0.000000
0.125198 1.345645 0.000000
0.130917 1.415061 0.000000
0.137042 1.488068 0.000000
0.143600 1.564855 0.000000
0.150623 1.645620 0.000000
0.158144 1.730572 0.000000
0.166198 1.819930 0.000000
0.174821 1.913925 0.000000
0.184055 2.012802 0.000000
0.193943 2.116817 0.000000
0.204531 2.226241 0.000000
0.215867 2.341359 0.000000
0.228005 2.462471 0.000000
0.241002 2.589892 0.000000
0.254918 2.723958 0.000000
0.269817 2.865019 0.000000
0.285769 3.013444 0.000000
0.302849 3.169625 0.000000
0.321136 3.333973 0.000000
0.340714 3.506920 0.000000
0.361675 3.688923 0.000000
0.384116 3.880465 0.000000
0.408141 4.082051 0.000000
0.433863 4.294219 0.000000
0.461399 4.517531 0.000000
0.490880 4.752582 0.000000
0.152513 1.039598 0.000000
0.158705 1.092664 0.000000
0.165337 1.148513 0.000000
0.172439 1.207296 0.000000
0.180044 1.269168 0.000000
0.188188 1.334295 0.000000
0.196909 1.402850 0.000000
0.206248 1.475017 0.000000
0.216249 1.550989 0.000000
0.226957 1.630970 0.000000
0.238423 1.715176 0.000000
0.250701 1.803833 0.000000
0.263847 1.897181 0.000000
0.277923 1.995473 0.000000
0.292995 2.098976 0.000000
0.309133 2.207969 0.000000
0.326411 2.322751 0.000000
0.344911 2.443633 0.000000
0.364718 2.570948 0.000000
0.385925 2.705042 0.000000
0.408630 2.846285 0.000000
0.432939 2.995065 0.000000
0.458964 3.151791 0.000000
0.486827 3.316897 0.000000
0.516657 3.490839 0.000000
0.548592 3.674101 0.000000
0.582781 3.867192 0.000000
0.619383 4.070649 0.000000
0.658567 4.285042 0.000000
0.700515 4.510969 0.000000
0.745422 4.749065 0.000000
0.202933 1.030318 0.000000
0.211331 1.082494 0.000000
0.220324 1.137456 0.000000
0.229954 1.195355 0.000000
0.240266 1.256353 0.000000
0.251309 1.320618 0.000000
0.263133 1.388328 0.000000
0.275793 1.459673 0.000000
0.289350 1.534851 0.000000
0.303865 1.614074 0.000000
0.319407 1.697561 0.000000
0.336048 1.785550 0.000000
0.353866 1.878286 0.000000
0.372943 1.976033 0.000000
0.393368 2.079067 0.000000
0.415237 2.187680 0.000000
0.438650 2.302181 0.000000
0.463717 2.422896 0.000000
0.490555 2.550171 0.000000
0.519287 2.684369 0.000000
0.550048 2.825878 0.000000
0.582980 2.975103 0.000000
0.618237 3.132475 0.000000
0.655981 3.298451 0.000000
0.696388 3.473511 0.000000
0.739645 3.658165 0.000000
0.785954 3.852952 0.000000
0.835528 4.058441 0.000000
0.888598 4.275234 0.000000
0.945409 4.503969 0.000000
1.006225 4.745320 0.000000
0.252954 1.018680 0.000000
0.263633 1.069972 0.000000
0.275069 1.124053 0.000000
0.287314 1.181079 0.000000
0.300425 1.241213 0.000000
0.314463 1.304629 0.000000
0.329495 1.371511 0.000000
0.345589 1.442052 0.000000
0.362821 1.516457 0.000000
0.381271 1.594944 0.000000
0.401024 1.677741 0.000000
0.422174 1.765091 0.000000
0.444817 1.857250 0.000000
0.469060 1.954491 0.000000
0.495015 2.057100 0.000000
0.522802 2.165381 0.000000
0.552551 2.279656 0.000000
0.584400 2.400264 0.000000
0.618496 2.527566 0.000000
0.654998 2.661944 0.000000
0.694075 2.803800 0.000000
0.735909 2.953561 0.000000
0.780693 3.111681 0.000000
0.828636 3.278637 0.000000
0.879958 3.454936 0.000000
0.934899 3.641116 0.000000
0.993713 3.837745 0.000000
1.056672 4.045425 0.000000
1.124067 4.264795 0.000000
1.196212 4.496529 0.000000
1.273439 4.741345 0.000000
0.302463 1.004709 0.000000
0.315503 1.055122 0.000000
0.329465 1.108329 0.000000
0.344414 1.164489 0.000000
0.360420 1.223770 0.000000
0.377557 1.286350 0.000000
0.395905 1.352418 0.000000
0.415549 1.422172 0.000000
0.436580 1.495824 0.000000
0.459097 1.573597 0.000000
0.483203 1.655730 0.000000
0.509012 1.742471 0.000000
0.536642 1.834087 0.000000
0.566222 1.930860 0.000000
0.597889 2.033086 0.000000
0.631790 2.141083 0.000000
0.668083 2.255185 0.000000
0.706936 2.375746 0.000000
0.748528 2.503143 0.000000
0.793054 2.637772 0.000000
0.840718 2.780058 0.000000
0.891742 2.930446 0.000000
0.946363 3.089411 0.000000
1.004833 3.257457 0.000000
1.067423 3.435117 0.000000
1.134422 3.622955 0.000000
1.206142 3.821572 0.000000
1.282913 4.031604 0.000000
1.365091 4.253725 0.000000
1.453056 4.488651 0.000000
1.547215 4.737141 0.000000
0.351350 0.988436 0.000000
0.366833 1.037975 0.000000
0.383409 1.090313 0.000000
0.401155 1.145615 0.000000
0.420155 1.204052 0.000000
0.440497 1.265807 0.000000
0.462274 1.331073 0.000000
0.485588 1.400056 0.000000
0.510548 1.472974 0.000000
0.537269 1.550057 0.000000
0.565875 1.631549 0.000000
0.596498 1.717710 0.000000
0.629282 1.808815 0.000000
0.664377 1.905156 0.000000
0.701947 2.007042 0.000000
0.742165 2.114802 0.000000
0.785219 2.228783 0.000000
0.831306 2.349356 0.000000
0.880642 2.476911 0.000000
0.933453 2.611866 0.000000
0.989986 2.754661 0.000000
1.050500 2.905765 0.000000
[...]
POINT_DATA 1089
VECTORS U float
0.002731 0.000004 0.000000
0.005039 0.000000 0.000000
0.004668 -0.001937 0.000000
-0.000000 -0.002179 0.000000
-0.000010 -0.000909 0.000000
0.001932 -0.000645 0.000000
0.002749 0.000001 0.000000
0.002762 0.000001 0.000000
0.002771 0.000001 0.000000
0.002780 0.000001 0.000000
0.002788 0.000001 0.000000
0.002797 0.000000 0.000000
0.002808 0.000000 0.000000
0.002822 0.000000 0.000000
0.002839 0.000000 0.000000
0.002860 0.000000 0.000000
0.002885 0.000000 0.000000
0.002915 0.000000 0.000000
0.002951 -0.000000 0.000000
0.002992 -0.000000 0.000000
0.003039 -0.000000 0.000000
0.003092 -0.000000 0.000000
0.003152 -0.000000 0.000000
0.003219 -0.000000 0.000000
0.003293 -0.000000 0.000000
0.003374 -0.000000 0.000000
0.003463 -0.000000 0.000000
0.003560 -0.000000 0.000000
0.003665 -0.000000 0.000000
0.003779 -0.000000 0.000000
0.003902 -0.000000 0.000000
0.004034 -0.000000 0.000000
0.004175 -0.000000 0.000000
0.004326 -0.000000 0.000000
0.004488 -0.000000 0.000000
0.004661 -0.000000 0.000000
0.004844 -0.000000 0.000000
0.005037 -0.000087 0.000000
0.005029 -0.000176 0.000000
0.005016 -0.000269 0.000000
0.004997 -0.000367 0.000000
0.004975 -0.000469 0.000000
0.004948 -0.000576 0.000000
0.004918 -0.000689 0.000000
0.004887 -0.000808 0.000000
0.004855 -0.000933 0.000000
0.004823 -0.001063 0.000000
0.004792 -0.001198 0.000000
0.004763 -0.001338 0.000000
0.004735 -0.001482 0.000000
0.004710 -0.001630 0.000000
0.004688 -0.001782 0.000000
0.004318 -0.001948 0.000000
0.003975 -0.001960 0.000000
0.003640 -0.001974 0.000000
0.003312 -0.001990 0.000000
0.002991 -0.002008 0.000000
0.002679 -0.002028 0.000000
0.002374 -0.002049 0.000000
0.002078 -0.002071 0.000000
0.001790 -0.002092 0.000000
0.001511 -0.002113 0.000000
0.001240 -0.002132 0.000000
0.000977 -0.002149 0.000000
0.000722 -0.002162 0.000000
0.000475 -0.002172 0.000000
0.000234 -0.002178 0.000000
-0.000000 -0.002096 0.000000
-0.000000 -0.002018 0.000000
-0.000000 -0.001945 0.000000
-0.000000 -0.001876 0.000000
-0.000000 -0.001812 0.000000
-0.000000 -0.001752 0.000000
-0.000000 -0.001696 0.000000
-0.000000 -0.001643 0.000000
-0.000000 -0.001595 0.000000
-0.000000 -0.001550 0.000000
-0.000000 -0.001508 0.000000
-0.000000 -0.001469 0.000000
-0.000000 -0.001434 0.000000
-0.000000 -0.001401 0.000000
-0.000000 -0.001371 0.000000
-0.000000 -0.001343 0.000000
-0.000000 -0.001317 0.000000
-0.000000 -0.001294 0.000000
-0.000000 -0.001272 0.000000
-0.000000 -0.001251 0.000000
-0.000001 -0.001232 0.000000
-0.000001 -0.001213 0.000000
-0.000001 -0.001195 0.000000
-0.000001 -0.001176 0.000000
-0.000001 -0.001156 0.000000
-0.000001 -0.001134 0.000000
-0.000001 -0.001110 0.000000
-0.000002 -0.001083 0.000000
-0.000002 -0.001051 0.000000
-0.000002 -0.001013 0.000000
-0.000000 -0.000967 0.000000
0.000137 -0.000912 0.000000
0.000268 -0.000906 0.000000
0.000401 -0.000901 0.000000
0.000533 -0.000893 0.000000
0.000664 -0.000884 0.000000
0.000794 -0.000872 0.000000
0.000921 -0.000858 0.000000
0.001047 -0.000842 0.000000
0.001170 -0.000824 0.000000
0.001289 -0.000804 0.000000
0.001406 -0.000782 0.000000
0.001520 -0.000758 0.000000
0.001629 -0.000732 0.000000
0.001735 -0.000705 0.000000
0.001837 -0.000675 0.000000
0.002025 -0.000613 0.000000
0.002113 -0.000579 0.000000
0.002195 -0.000544 0.000000
0.002273 -0.000507 0.000000
0.002344 -0.000470 0.000000
0.002410 -0.000431 0.000000
0.002470 -0.000391 0.000000
0.002525 -0.000349 0.000000
0.002573 -0.000308 0.000000
0.002615 -0.000265 0.000000
0.002650 -0.000222 0.000000
0.002680 -0.000178 0.000000
0.002702 -0.000134 0.000000
0.002718 -0.000089 0.000000
0.002729 -0.000046 0.000000
0.001854 -0.000595 0.000000
0.001792 -0.000557 0.000000
0.001742 -0.000528 0.000000
0.001704 -0.000507 0.000000
0.001677 -0.000494 0.000000
0.001660 -0.000488 0.000000
0.001653 -0.000487 0.000000
0.001655 -0.000492 0.000000
0.001667 -0.000502 0.000000
0.001687 -0.000517 0.000000
0.001716 -0.000536 0.000000
0.001753 -0.000559 0.000000
0.001798 -0.000587 0.000000
0.001852 -0.000618 0.000000
0.001915 -0.000652 0.000000
0.001986 -0.000691 0.000000
0.002066 -0.000733 0.000000
0.002156 -0.000779 0.000000
0.002255 -0.000829 0.000000
0.002364 -0.000883 0.000000
0.002483 -0.000942 0.000000
0.002613 -0.001004 0.000000
0.002755 -0.001071 0.000000
0.002908 -0.001144 0.000000
0.003075 -0.001221 0.000000
0.003255 -0.001304 0.000000
0.003449 -0.001392 0.000000
0.003658 -0.001487 0.000000
0.003884 -0.001589 0.000000
0.004127 -0.001697 0.000000
0.004387 -0.001813 0.000000
0.000120 -0.000964 0.000000
0.000112 -0.001009 0.000000
0.000103 -0.001047 0.000000
0.000097 -0.001079 0.000000
0.000092 -0.001106 0.000000
0.000088 -0.001130 0.000000
0.000086 -0.001151 0.000000
0.000084 -0.001171 0.000000
0.000084 -0.001190 0.000000
0.000084 -0.001208 0.000000
0.000085 -0.001227 0.000000
0.000086 -0.001246 0.000000
0.000088 -0.001267 0.000000
0.000091 -0.001288 0.000000
0.000094 -0.001312 0.000000
0.000098 -0.001337 0.000000
0.000102 -0.001365 0.000000
0.000106 -0.001395 0.000000
0.000111 -0.001427 0.000000
0.000117 -0.001463 0.000000
0.000123 -0.001501 0.000000
0.000130 -0.001543 0.000000
0.000137 -0.001588 0.000000
0.000145 -0.001637 0.000000
0.000154 -0.001689 0.000000
0.000163 -0.001746 0.000000
0.000173 -0.001806 0.000000
0.000183 -0.001871 0.000000
0.000195 -0.001940 0.000000
0.000207 -0.002014 0.000000
0.000220 -0.002093 0.000000
0.000243 -0.000959 0.000000
0.000223 -0.001002 0.000000
0.000208 -0.001038 0.000000
0.000195 -0.001069 0.000000
0.000186 -0.001096 0.000000
0.000179 -0.001119 0.000000
0.000174 -0.001140 0.000000
0.000171 -0.001160 0.000000
0.000170 -0.001178 0.000000
0.000170 -0.001197 0.000000
0.000171 -0.001215 0.000000
0.000174 -0.001235 0.000000
0.000178 -0.001255 0.000000
0.000184 -0.001276 0.000000
0.000190 -0.001300 0.000000
0.000197 -0.001325 0.000000
0.000206 -0.001352 0.000000
0.000215 -0.001382 0.000000
0.000225 -0.001415 0.000000
0.000237 -0.001450 0.000000
0.000250 -0.001489 0.000000
0.000263 -0.001531 0.000000
0.000278 -0.001576 0.000000
0.000294 -0.001625 0.000000
0.000311 -0.001678 0.000000
0.000330 -0.001735 0.000000
0.000350 -0.001796 0.000000
0.000372 -0.001861 0.000000
0.000395 -0.001931 0.000000
0.000420 -0.002006 0.000000
0.000446 -0.002086 0.000000
0.000365 -0.000950 0.000000
0.000337 -0.000990 0.000000
0.000314 -0.001024 0.000000
0.000295 -0.001054 0.000000
0.000281 -0.001079 0.000000
0.000271 -0.001102 0.000000
0.000264 -0.001123 0.000000
0.000259 -0.001142 0.000000
0.000258 -0.001160 0.000000
0.000258 -0.001178 0.000000
0.000261 -0.001197 0.000000
0.000265 -0.001216 0.000000
0.000271 -0.001236 0.000000
0.000279 -0.001258 0.000000
0.000289 -0.001281 0.000000
0.000300 -0.001306 0.000000
0.000313 -0.001334 0.000000
0.000327 -0.001364 0.000000
0.000343 -0.001396 0.000000
0.000360 -0.001432 0.000000
0.000379 -0.001471 0.000000
0.000400 -0.001513 0.000000
0.000423 -0.001559 0.000000
0.000447 -0.001608 0.000000
0.000473 -0.001661 0.000000
0.000502 -0.001719 0.000000
0.000532 -0.001780 0.000000
0.000565 -0.001847 0.000000
0.000600 -0.001918 0.000000
0.000638 -0.001994 0.000000
0.000679 -0.002075 0.000000
0.000487 -0.000938 0.000000
0.000451 -0.000974 0.000000
0.000421 -0.001006 0.000000
0.000397 -0.001034 0.000000
0.000379 -0.001058 0.000000
0.000366 -0.001079 0.000000
0.000356 -0.001099 0.000000
0.000351 -0.001118 0.000000
0.000348 -0.001136 0.000000
0.000349 -0.001153 0.000000
0.000353 -0.001172 0.000000
0.000359 -0.001191 0.000000
0.000367 -0.001211 0.000000
0.000378 -0.001232 0.000000
0.000391 -0.001256 0.000000
0.000406 -0.001281 0.000000
0.000423 -0.001309 0.000000
0.000442 -0.001339 0.000000
0.000463 -0.001372 0.000000
0.000487 -0.001408 0.000000
0.000513 -0.001447 0.000000
0.000541 -0.001489 0.000000
0.000571 -0.001535 0.000000
0.000604 -0.001585 0.000000
0.000640 -0.001639 0.000000
0.000678 -0.001698 0.000000
0.000720 -0.001760 0.000000
0.000764 -0.001828 0.000000
0.000812 -0.001900 0.000000
0.000863 -0.001977 0.000000
0.000918 -0.002060 0.000000
0.000609 -0.000922 0.000000
0.000565 -0.000955 0.000000
0.000530 -0.000983 0.000000
0.000501 -0.001008 0.000000
0.000479 -0.001030 0.000000
0.000463 -0.001051 0.000000
0.000452 -0.001069 0.000000
0.000445 -0.001087 0.000000
0.000442 -0.001104 0.000000
0.000443 -0.001122 0.000000
0.000448 -0.001140 0.000000
0.000455 -0.001159 0.000000
0.000466 -0.001179 0.000000
0.000480 -0.001200 0.000000
0.000496 -0.001224 0.000000
0.000515 -0.001249 0.000000
0.000537 -0.001277 0.000000
0.000561 -0.001308 0.000000
0.000588 -0.001341 0.000000
0.000618 -0.001377 0.000000
0.000651 -0.001417 0.000000
0.000687 -0.001460 0.000000
0.000725 -0.001507 0.000000
0.000767 -0.001558 0.000000
0.000812 -0.001613 0.000000
0.000861 -0.001672 0.000000
0.000913 -0.001736 0.000000
0.000970 -0.001804 0.000000
0.001030 -0.001878 0.000000
0.001095 -0.001957 0.000000
0.001165 -0.002042 0.000000
0.000731 -0.000904 0.000000
0.000681 -0.000932 0.000000
0.000640 -0.000957 0.000000
0.000607 -0.000978 0.000000
0.000582 -0.000998 0.000000
0.000563 -0.001016 0.000000
0.000550 -0.001033 0.000000
0.000542 -0.001050 0.000000
0.000539 -0.001067 0.000000
0.000541 -0.001084 0.000000
0.000546 -0.001101 0.000000
0.000556 -0.001120 0.000000
0.000569 -0.001140 0.000000
0.000586 -0.001162 0.000000
0.000605 -0.001185 0.000000
0.000629 -0.001211 0.000000
0.000655 -0.001240 0.000000
0.000685 -0.001271 0.000000
0.000718 -0.001305 0.000000
0.000754 -0.001342 0.000000
0.000794 -0.001382 0.000000
0.000837 -0.001426 0.000000
0.000884 -0.001474 0.000000
0.000935 -0.001526 0.000000
0.000990 -0.001582 0.000000
0.001049 -0.001642 0.000000
0.001113 -0.001707 0.000000
0.001182 -0.001778 0.000000
0.001256 -0.001853 0.000000
0.001335 -0.001934 0.000000
0.001420 -0.002020 0.000000
0.000851 -0.000883 0.000000
0.000796 -0.000906 0.000000
0.000750 -0.000926 0.000000
0.000714 -0.000944 0.000000
0.000686 -0.000961 0.000000
0.000665 -0.000977 0.000000
0.000651 -0.000992 0.000000
0.000642 -0.001008 0.000000
0.000640 -0.001023 0.000000
0.000642 -0.001040 0.000000
0.000649 -0.001057 0.000000
0.000660 -0.001075 0.000000
0.000676 -0.001095 0.000000
0.000696 -0.001117 0.000000
0.000719 -0.001141 0.000000
0.000747 -0.001168 0.000000
0.000778 -0.001197 0.000000
0.000813 -0.001228 0.000000
0.000852 -0.001263 0.000000
0.000895 -0.001301 0.000000
0.000942 -0.001342 0.000000
0.000993 -0.001388 0.000000
0.001049 -0.001437 0.000000
0.001109 -0.001490 0.000000
0.001174 -0.001547 0.000000
0.001244 -0.001609 0.000000
0.001320 -0.001676 0.000000
0.001401 -0.001748 0.000000
0.001488 -0.001825 0.000000
0.001582 -0.001908 0.000000
0.001682 -0.001997 0.000000
0.000971 -0.000860 0.000000
0.000911 -0.000876 0.000000
0.000862 -0.000891 0.000000
0.000823 -0.000905 0.000000
0.000792 -0.000919 0.000000
0.000770 -0.000933 0.000000
0.000754 -0.000946 0.000000
0.000746 -0.000960 0.000000
0.000743 -0.000975 0.000000
0.000747 -0.000990 0.000000
0.000755 -0.001007 0.000000
0.000769 -0.001026 0.000000
0.000787 -0.001046 0.000000
0.000810 -0.001068 0.000000
0.000838 -0.001092 0.000000
0.000869 -0.001119 0.000000
0.000906 -0.001149 0.000000
0.000946 -0.001182 0.000000
0.000991 -0.001217 0.000000
0.001041 -0.001257 0.000000
0.001096 -0.001299 0.000000
0.001155 -0.001346 0.000000
0.001219 -0.001396 0.000000
0.001289 -0.001451 0.000000
0.001364 -0.001510 0.000000
0.001446 -0.001574 0.000000
0.001533 -0.001642 0.000000
0.001627 -0.001716 0.000000
0.001728 -0.001796 0.000000
0.001836 -0.001881 0.000000
0.001953 -0.001973 0.000000
0.001089 -0.000834 0.000000
0.001026 -0.000843 0.000000
0.000974 -0.000853 0.000000
0.000932 -0.000863 0.000000
0.000900 -0.000873 0.000000
0.000877 -0.000884 0.000000
0.000861 -0.000895 0.000000
0.000852 -0.000908 0.000000
0.000851 -0.000921 0.000000
0.000855 -0.000936 0.000000
0.000865 -0.000953 0.000000
0.000881 -0.000971 0.000000
0.000903 -0.000992 0.000000
0.000929 -0.001014 0.000000
0.000960 -0.001040 0.000000
0.000997 -0.001067 0.000000
0.001038 -0.001098 0.000000
0.001084 -0.001132 0.000000
0.001136 -0.001169 0.000000
0.001193 -0.001209 0.000000
0.001255 -0.001253 0.000000
0.001322 -0.001301 0.000000
0.001395 -0.001353 0.000000
0.001475 -0.001410 0.000000
0.001561 -0.001471 0.000000
0.001653 -0.001537 0.000000
0.001753 -0.001608 0.000000
0.001860 -0.001684 0.000000
0.001975 -0.001766 0.000000
0.002099 -0.001854 0.000000
0.002231 -0.001948 0.000000
0.001206 -0.000805 0.000000
0.001141 -0.000808 0.000000
0.001086 -0.000812 0.000000
0.001043 -0.000818 0.000000
0.001010 -0.000824 0.000000
0.000986 -0.000832 0.000000
0.000970 -0.000841 0.000000
0.000962 -0.000852 0.000000
0.000961 -0.000864 0.000000
0.000967 -0.000879 0.000000
0.000979 -0.000895 0.000000
0.000998 -0.000914 0.000000
0.001022 -0.000934 0.000000
0.001052 -0.000958 0.000000
0.001088 -0.000984 0.000000
0.001129 -0.001013 0.000000
0.001175 -0.001044 0.000000
0.001227 -0.001079 0.000000
0.001285 -0.001118 0.000000
0.001349 -0.001160 0.000000
0.001419 -0.001206 0.000000
0.001495 -0.001256 0.000000
0.001577 -0.001310 0.000000
0.001666 -0.001368 0.000000
0.001763 -0.001431 0.000000
0.001867 -0.001499 0.000000
0.001979 -0.001573 0.000000
0.002100 -0.001651 0.000000
0.002229 -0.001736 0.000000
0.002368 -0.001827 0.000000
0.002518 -0.001924 0.000000
0.001321 -0.000774 0.000000
0.001254 -0.000771 0.000000
0.001198 -0.000769 0.000000
0.001154 -0.000769 0.000000
0.001120 -0.000772 0.000000
0.001096 -0.000777 0.000000
0.001081 -0.000784 0.000000
0.001074 -0.000793 0.000000
0.001074 -0.000805 0.000000
0.001082 -0.000819 0.000000
0.001097 -0.000835 0.000000
0.001118 -0.000854 0.000000
0.001145 -0.000875 0.000000
0.001179 -0.000899 0.000000
0.001219 -0.000926 0.000000
0.001265 -0.000956 0.000000
0.001317 -0.000990 0.000000
0.001375 -0.001026 0.000000
0.001439 -0.001066 0.000000
0.001510 -0.001110 0.000000
0.001588 -0.001158 0.000000
0.001672 -0.001210 0.000000
0.001764 -0.001266 0.000000
0.001863 -0.001326 0.000000
0.001970 -0.001392 0.000000
0.002086 -0.001462 0.000000
0.002211 -0.001538 0.000000
0.002346 -0.001619 0.000000
0.002490 -0.001707 0.000000
0.002645 -0.001800 0.000000
0.002812 -0.001901 0.000000
0.001433 -0.000742 0.000000
0.001366 -0.000731 0.000000
0.001310 -0.000723 0.000000
0.001265 -0.000719 0.000000
0.001232 -0.000718 0.000000
0.001208 -0.000720 0.000000
0.001194 -0.000725 0.000000
0.001188 -0.000733 0.000000
0.001190 -0.000744 0.000000
0.001200 -0.000757 0.000000
0.001217 -0.000773 0.000000
0.001241 -0.000793 0.000000
0.001272 -0.000815 0.000000
0.001310 -0.000840 0.000000
0.001354 -0.000868 0.000000
0.001405 -0.000900 0.000000
0.001462 -0.000935 0.000000
0.001526 -0.000973 0.000000
0.001597 -0.001015 0.000000
0.001675 -0.001061 0.000000
0.001761 -0.001110 0.000000
0.001854 -0.001164 0.000000
0.001955 -0.001223 0.000000
0.002065 -0.001286 0.000000
0.002183 -0.001353 0.000000
0.002311 -0.001426 0.000000
0.002449 -0.001505 0.000000
0.002598 -0.001589 0.000000
0.002757 -0.001679 0.000000
0.002929 -0.001776 0.000000
0.003113 -0.001879 0.000000
0.001543 -0.000707 0.000000
0.001476 -0.000689 0.000000
0.001420 -0.000676 0.000000
0.001377 -0.000667 0.000000
0.001344 -0.000662 0.000000
0.001321 -0.000662 0.000000
0.001308 -0.000665 0.000000
0.001304 -0.000672 0.000000
0.001308 -0.000682 0.000000
0.001320 -0.000695 0.000000
0.001340 -0.000712 0.000000
0.001367 -0.000732 0.000000
0.001402 -0.000755 0.000000
0.001443 -0.000781 0.000000
0.001492 -0.000811 0.000000
0.001547 -0.000844 0.000000
0.001610 -0.000881 0.000000
0.001681 -0.000921 0.000000
0.001758 -0.000965 0.000000
0.001844 -0.001013 0.000000
0.001937 -0.001064 0.000000
0.002039 -0.001121 0.000000
0.002150 -0.001181 0.000000
0.002271 -0.001246 0.000000
0.002401 -0.001317 0.000000
0.002541 -0.001392 0.000000
0.002692 -0.001473 0.000000
0.002855 -0.001560 0.000000
0.003031 -0.001653 0.000000
0.003219 -0.001753 0.000000
0.003422 -0.001860 0.000000
0.001650 -0.000671 0.000000
0.001584 -0.000646 0.000000
0.001529 -0.000627 0.000000
0.001487 -0.000614 0.000000
0.001456 -0.000606 0.000000
0.001435 -0.000603 0.000000
0.001423 -0.000605 0.000000
0.001421 -0.000610 0.000000
0.001427 -0.000620 0.000000
0.001442 -0.000634 0.000000
0.001465 -0.000651 0.000000
0.001495 -0.000672 0.000000
0.001533 -0.000696 0.000000
0.001579 -0.000724 0.000000
0.001632 -0.000755 0.000000
0.001693 -0.000790 0.000000
0.001761 -0.000829 0.000000
0.001838 -0.000871 0.000000
0.001922 -0.000917 0.000000
0.002015 -0.000967 0.000000
0.002117 -0.001021 0.000000
0.002228 -0.001079 0.000000
0.002349 -0.001142 0.000000
0.002480 -0.001210 0.000000
0.002622 -0.001282 0.000000
0.002775 -0.001360 0.000000
0.002940 -0.001444 0.000000
0.003118 -0.001534 0.000000
0.003310 -0.001630 0.000000
0.003516 -0.001732 0.000000
0.003737 -0.001842 0.000000
0.001754 -0.000633 0.000000
0.001689 -0.000602 0.000000
0.001637 -0.000577 0.000000
0.001596 -0.000560 0.000000
0.001567 -0.000550 0.000000
0.001548 -0.000545 0.000000
0.001538 -0.000545 0.000000
0.001538 -0.000550 0.000000
0.001547 -0.000560 0.000000
0.001565 -0.000574 0.000000
0.001590 -0.000592 0.000000
0.001624 -0.000614 0.000000
0.001666 -0.000640 0.000000
0.001715 -0.000669 0.000000
0.001773 -0.000702 0.000000
0.001839 -0.000739 0.000000
0.001913 -0.000779 0.000000
0.001996 -0.000823 0.000000
0.002088 -0.000871 0.000000
0.002189 -0.000923 0.000000
0.002299 -0.000980 0.000000
0.002420 -0.001040 0.000000
0.002551 -0.001105 0.000000
0.002693 -0.001175 0.000000
0.002847 -0.001250 0.000000
0.003013 -0.001331 0.000000
0.003193 -0.001417 0.000000
0.003386 -0.001509 0.000000
0.003594 -0.001608 0.000000
0.003818 -0.001714 0.000000
0.004059 -0.001827 0.000000
0.001954 -0.000557 0.000000
0.001898 -0.000516 0.000000
0.001852 -0.000483 0.000000
0.001817 -0.000459 0.000000
0.001791 -0.000443 0.000000
0.001775 -0.000434 0.000000
0.001768 -0.000431 0.000000
0.001770 -0.000434 0.000000
0.001780 -0.000442 0.000000
0.001798 -0.000455 0.000000
0.001825 -0.000472 0.000000
0.001859 -0.000493 0.000000
0.001902 -0.000519 0.000000
0.001953 -0.000548 0.000000
0.002013 -0.000581 0.000000
0.002081 -0.000617 0.000000
0.002158 -0.000657 0.000000
0.002244 -0.000701 0.000000
0.002340 -0.000748 0.000000
0.002445 -0.000799 0.000000
0.002561 -0.000853 0.000000
0.002687 -0.000912 0.000000
0.002824 -0.000975 0.000000
0.002974 -0.001043 0.000000
0.003136 -0.001115 0.000000
0.003311 -0.001193 0.000000
0.003500 -0.001275 0.000000
0.003704 -0.001364 0.000000
0.003924 -0.001458 0.000000
0.004161 -0.001559 0.000000
0.004415 -0.001667 0.000000
0.002050 -0.000520 0.000000
0.002000 -0.000475 0.000000
0.001959 -0.000439 0.000000
0.001927 -0.000412 0.000000
0.001904 -0.000393 0.000000
0.001889 -0.000382 0.000000
0.001882 -0.000377 0.000000
0.001883 -0.000378 0.000000
0.001893 -0.000384 0.000000
0.001910 -0.000395 0.000000
0.001935 -0.000411 0.000000
0.001967 -0.000430 0.000000
0.002008 -0.000454 0.000000
0.002056 -0.000481 0.000000
0.002113 -0.000512 0.000000
0.002178 -0.000546 0.000000
0.002252 -0.000583 0.000000
0.002335 -0.000624 0.000000
0.002427 -0.000668 0.000000
0.002529 -0.000716 0.000000
0.002641 -0.000767 0.000000
0.002763 -0.000822 0.000000
0.002897 -0.000881 0.000000
0.003042 -0.000944 0.000000
0.003199 -0.001012 0.000000
0.003370 -0.001084 0.000000
0.003554 -0.001161 0.000000
0.003753 -0.001243 0.000000
0.003967 -0.001330 0.000000
0.004197 -0.001424 0.000000
0.004445 -0.001524 0.000000
0.002141 -0.000482 0.000000
0.002097 -0.000434 0.000000
0.002061 -0.000396 0.000000
0.002033 -0.000368 0.000000
0.002013 -0.000347 0.000000
0.002000 -0.000334 0.000000
0.001994 -0.000327 0.000000
0.001996 -0.000326 0.000000
0.002005 -0.000330 0.000000
0.002021 -0.000339 0.000000
0.002044 -0.000353 0.000000
0.002075 -0.000371 0.000000
0.002114 -0.000392 0.000000
0.002160 -0.000417 0.000000
0.002214 -0.000446 0.000000
0.002276 -0.000477 0.000000
0.002347 -0.000512 0.000000
0.002427 -0.000550 0.000000
0.002516 -0.000592 0.000000
0.002614 -0.000636 0.000000
0.002722 -0.000684 0.000000
0.002841 -0.000735 0.000000
0.002971 -0.000790 0.000000
0.003112 -0.000849 0.000000
0.003265 -0.000911 0.000000
0.003431 -0.000978 0.000000