# vtk DataFile Version 2.0
cantilever_tri3_mix
ASCII
DATASET POLYDATA
POINTS 1900 float
0.000000 0.000000 0.000000
48.000000 44.000000 0.000000
48.000000 60.000000 0.000000
0.000000 44.000000 0.000000
0.872727 0.800000 0.000000
1.745455 1.600000 0.000000
2.618182 2.400000 0.000000
3.490909 3.200000 0.000000
4.363636 4.000000 0.000000
5.236364 4.800000 0.000000
6.109091 5.600000 0.000000
6.981818 6.400000 0.000000
7.854545 7.200000 0.000000
8.727273 8.000000 0.000000
9.600000 8.800000 0.000000
10.472727 9.600000 0.000000
11.345455 10.400000 0.000000
12.218182 11.200000 0.000000
13.090909 12.000000 0.000000
13.963636 12.800000 0.000000
14.836364 13.600000 0.000000
15.709091 14.400000 0.000000
16.581818 15.200000 0.000000
17.454545 16.000000 0.000000
18.327273 16.800000 0.000000
19.200000 17.600000 0.000000
20.072727 18.400000 0.000000
20.945455 19.200000 0.000000
21.818182 20.000000 0.000000
22.690909 20.800000 0.000000
23.563636 21.600000 0.000000
24.436364 22.400000 0.000000
25.309091 23.200000 0.000000
26.181818 24.000000 0.000000
27.054545 24.800000 0.000000
27.927273 25.600000 0.000000
28.800000 26.400000 0.000000
29.672727 27.200000 0.000000
30.545455 28.000000 0.000000
31.418182 28.800000 0.000000
32.290909 29.600000 0.000000
33.163636 30.400000 0.000000
34.036364 31.200000 0.000000
34.909091 32.000000 0.000000
35.781818 32.800000 0.000000
36.654545 33.600000 0.000000
37.527273 34.400000 0.000000
38.400000 35.200000 0.000000
39.272727 36.000000 0.000000
40.145455 36.800000 0.000000
41.018182 37.600000 0.000000
41.890909 38.400000 0.000000
42.763636 39.200000 0.000000
43.636364 40.000000 0.000000
44.509091 40.800000 0.000000
45.381818 41.600000 0.000000
46.254545 42.400000 0.000000
47.127273 43.200000 0.000000
48.000000 44.888889 0.000000
48.000000 45.777778 0.000000
48.000000 46.666667 0.000000
48.000000 47.555556 0.000000
48.000000 48.444444 0.000000
48.000000 49.333333 0.000000
48.000000 50.222222 0.000000
48.000000 51.111111 0.000000
48.000000 52.000000 0.000000
48.000000 52.888889 0.000000
48.000000 53.777778 0.000000
48.000000 54.666667 0.000000
48.000000 55.555556 0.000000
48.000000 56.444444 0.000000
48.000000 57.333333 0.000000
48.000000 58.222222 0.000000
48.000000 59.111111 0.000000
47.127273 59.709091 0.000000
46.254545 59.418182 0.000000
45.381818 59.127273 0.000000
44.509091 58.836364 0.000000
43.636364 58.545455 0.000000
42.763636 58.254545 0.000000
41.890909 57.963636 0.000000
41.018182 57.672727 0.000000
40.145455 57.381818 0.000000
39.272727 57.090909 0.000000
38.400000 56.800000 0.000000
37.527273 56.509091 0.000000
36.654545 56.218182 0.000000
35.781818 55.927273 0.000000
34.909091 55.636364 0.000000
34.036364 55.345455 0.000000
33.163636 55.054545 0.000000
32.290909 54.763636 0.000000
31.418182 54.472727 0.000000
30.545455 54.181818 0.000000
29.672727 53.890909 0.000000
28.800000 53.600000 0.000000
27.927273 53.309091 0.000000
27.054545 53.018182 0.000000
26.181818 52.727273 0.000000
25.309091 52.436364 0.000000
24.436364 52.145455 0.000000
23.563636 51.854545 0.000000
22.690909 51.563636 0.000000
21.818182 51.272727 0.000000
20.945455 50.981818 0.000000
20.072727 50.690909 0.000000
19.200000 50.400000 0.000000
18.327273 50.109091 0.000000
17.454545 49.818182 0.000000
16.581818 49.527273 0.000000
15.709091 49.236364 0.000000
14.836364 48.945455 0.000000
13.963636 48.654545 0.000000
13.090909 48.363636 0.000000
12.218182 48.072727 0.000000
11.345455 47.781818 0.000000
10.472727 47.490909 0.000000
9.600000 47.200000 0.000000
8.727273 46.909091 0.000000
7.854545 46.618182 0.000000
6.981818 46.327273 0.000000
6.109091 46.036364 0.000000
5.236364 45.745455 0.000000
4.363636 45.454545 0.000000
3.490909 45.163636 0.000000
2.618182 44.872727 0.000000
1.745455 44.581818 0.000000
0.872727 44.290909 0.000000
0.000000 43.200000 0.000000
0.000000 42.400000 0.000000
0.000000 41.600000 0.000000
0.000000 40.800000 0.000000
0.000000 40.000000 0.000000
0.000000 39.200000 0.000000
0.000000 38.400000 0.000000
0.000000 37.600000 0.000000
0.000000 36.800000 0.000000
0.000000 36.000000 0.000000
0.000000 35.200000 0.000000
0.000000 34.400000 0.000000
0.000000 33.600000 0.000000
0.000000 32.800000 0.000000
0.000000 32.000000 0.000000
0.000000 31.200000 0.000000
0.000000 30.400000 0.000000
0.000000 29.600000 0.000000
0.000000 28.800000 0.000000
0.000000 28.000000 0.000000
0.000000 27.200000 0.000000
0.000000 26.400000 0.000000
0.000000 25.600000 0.000000
0.000000 24.800000 0.000000
0.000000 24.000000 0.000000
0.000000 23.200000 0.000000
0.000000 22.400000 0.000000
0.000000 21.600000 0.000000
0.000000 20.800000 0.000000
0.000000 20.000000 0.000000
0.000000 19.200000 0.000000
0.000000 18.400000 0.000000
0.000000 17.600000 0.000000
0.000000 16.800000 0.000000
0.000000 16.000000 0.000000
0.000000 15.200000 0.000000
0.000000 14.400000 0.000000
0.000000 13.600000 0.000000
0.000000 12.800000 0.000000
0.000000 12.000000 0.000000
0.000000 11.200000 0.000000
0.000000 10.400000 0.000000
0.000000 9.600000 0.000000
0.000000 8.800000 0.000000
0.000000 8.000000 0.000000
0.000000 7.200000 0.000000
0.000000 6.400000 0.000000
0.000000 5.600000 0.000000
0.000000 4.800000 0.000000
0.000000 4.000000 0.000000
0.000000 3.200000 0.000000
0.000000 2.400000 0.000000
0.000000 1.600000 0.000000
0.000000 0.800000 0.000000
0.694258 14.149242 0.000000
0.585552 13.195906 0.000000
1.294127 13.432843 0.000000
3.945012 44.548794 0.000000
3.208568 44.415171 0.000000
4.253170 43.971445 0.000000
4.811175 44.705668 0.000000
39.397800 53.513213 0.000000
39.878707 52.860192 0.000000
40.192389 53.695448 0.000000
40.641925 53.171124 0.000000
7.645820 45.821368 0.000000
6.908434 45.718696 0.000000
7.332052 45.178658 0.000000
37.768710 47.406893 0.000000
38.103949 46.473663 0.000000
38.752058 47.374558 0.000000
39.035748 46.393027 0.000000
31.779879 48.682443 0.000000
32.443003 49.345434 0.000000
31.283875 49.716388 0.000000
32.079740 50.226328 0.000000
5.794443 41.746877 0.000000
5.796105 41.148240 0.000000
6.451731 41.350370 0.000000
6.266310 40.539650 0.000000
2.618474 18.806372 0.000000
2.880598 19.689706 0.000000
2.240131 19.463837 0.000000
3.535938 19.198551 0.000000
20.679625 41.238769 0.000000
21.649077 41.097435 0.000000
21.212439 42.109900 0.000000
46.092049 49.457252 0.000000
46.766904 49.687382 0.000000
46.176057 50.229733 0.000000
22.313225 41.831085 0.000000
18.064072 32.926502 0.000000
17.275358 33.512162 0.000000
17.273543 32.532041 0.000000
37.164174 55.197491 0.000000
37.864513 55.314664 0.000000
37.473901 55.829333 0.000000
9.762751 23.811158 0.000000
9.500261 22.810664 0.000000
10.611761 23.306359 0.000000
45.705401 57.893364 0.000000
46.052695 58.558345 0.000000
45.165595 58.311112 0.000000
37.900548 54.415040 0.000000
10.518799 24.273470 0.000000
10.762426 25.077748 0.000000
9.970961 24.693481 0.000000
46.294695 57.791929 0.000000
2.437401 17.410921 0.000000
1.659453 17.312549 0.000000
2.286490 16.799822 0.000000
1.842203 18.062493 0.000000
7.445192 13.471215 0.000000
7.109020 12.651606 0.000000
8.156381 12.615359 0.000000
12.029410 24.260251 0.000000
12.680435 23.744023 0.000000
12.902330 24.648249 0.000000
11.746475 23.518024 0.000000
24.604336 28.456658 0.000000
25.190330 27.640606 0.000000
25.637730 28.565582 0.000000
6.353380 13.223196 0.000000
26.232608 27.440434 0.000000
13.855042 20.101601 0.000000
13.259925 20.454657 0.000000
12.899019 19.707948 0.000000
13.739721 21.077232 0.000000
46.518255 48.842045 0.000000
45.625723 48.832374 0.000000
16.480017 32.962893 0.000000
5.623249 28.531920 0.000000
6.347279 28.898954 0.000000
5.585954 29.334965 0.000000
6.483136 29.652545 0.000000
5.523814 39.113026 0.000000
6.241984 39.165538 0.000000
5.862050 39.829584 0.000000
6.092849 38.507078 0.000000
15.963610 44.606522 0.000000
15.090775 44.034820 0.000000
15.714314 43.530652 0.000000
9.296400 43.728660 0.000000
9.164168 44.557968 0.000000
8.360800 44.029826 0.000000
19.737669 23.876084 0.000000
20.369190 24.644551 0.000000
19.289604 25.087764 0.000000
32.602507 47.477466 0.000000
32.075366 48.035092 0.000000
31.883695 47.104506 0.000000
32.905535 48.354266 0.000000
14.866451 44.796130 0.000000
30.152695 52.690946 0.000000
30.837261 53.180322 0.000000
30.152893 53.415505 0.000000
11.123304 25.930974 0.000000
11.985477 26.125600 0.000000
11.235292 26.822324 0.000000
5.654347 44.212705 0.000000
4.914154 43.745050 0.000000
12.266245 27.012100 0.000000
13.432299 23.160078 0.000000
12.479705 22.900265 0.000000
13.618470 23.885446 0.000000
5.692992 45.104250 0.000000
47.169452 48.200332 0.000000
47.302358 49.068824 0.000000
6.221282 12.107797 0.000000
5.262673 12.974962 0.000000
20.498271 25.580677 0.000000
2.190973 35.958994 0.000000
2.938747 36.099059 0.000000
2.580153 36.896140 0.000000
8.921671 11.701481 0.000000
7.603826 11.836842 0.000000
3.465318 36.491046 0.000000
40.889080 50.463708 0.000000
40.169477 51.129378 0.000000
40.115104 50.178462 0.000000
40.945290 51.489571 0.000000
22.856056 32.632251 0.000000
23.726343 31.944356 0.000000
23.971533 32.910934 0.000000
22.774652 31.449161 0.000000
42.546371 49.185110 0.000000
41.727702 49.806890 0.000000
41.722490 48.797230 0.000000
42.553000 50.211410 0.000000
12.696318 25.373818 0.000000
12.893020 26.141609 0.000000
6.555295 45.168884 0.000000
11.793959 25.147980 0.000000
2.414781 10.225124 0.000000
2.705464 11.235501 0.000000
1.828904 10.741136 0.000000
3.433352 10.594861 0.000000
0.535478 3.066047 0.000000
1.244863 11.178388 0.000000
1.150622 10.487952 0.000000
13.688765 26.129500 0.000000
13.151524 26.762298 0.000000
13.963995 26.990191 0.000000
15.861419 20.092203 0.000000
17.053191 20.414334 0.000000
15.979087 21.033688 0.000000
3.452534 13.543105 0.000000
3.251915 14.480610 0.000000
2.511916 13.940540 0.000000
31.114428 52.055178 0.000000
19.957278 39.145460 0.000000
20.384318 40.283404 0.000000
19.491615 39.992153 0.000000
8.283912 15.410974 0.000000
7.268090 15.713283 0.000000
7.590207 14.569791 0.000000
16.761550 21.364085 0.000000
15.555646 23.884567 0.000000
[...]
POINT_DATA 1900
SCALARS P float
LOOKUP_TABLE default
23.753775
-8.731799
62.256555
110.482758
17.748867
-5.717405
-15.891408
-0.761552
17.221194
1.656965
-4.418724
14.422292
-3.994654
13.812706
12.000557
6.197681
14.500427
0.038373
9.374568
1.473630
7.519674
20.399598
8.683780
-1.672722
-7.646045
17.990174
10.920392
21.347661
30.126080
31.650092
23.850363
19.687236
8.705029
16.682594
18.349124
8.829875
6.183986
16.254235
11.104164
14.944062
20.921244
15.232035
4.380873
20.520717
6.234450
26.350387
24.004683
16.337357
13.707122
21.234361
2.774411
17.461576
4.284882
9.901203
-10.045497
18.172825
-0.020083
19.191271
-9.291097
-8.309864
-4.802380
-0.744799
25.029003
2.939355
-18.404677
-15.343253
26.697565
5.095419
5.103039
30.915992
17.078805
3.860839
-7.361444
-2.104128
-23.934922
13.838007
19.553951
4.980909
-0.936512
2.641353
-4.397419
-5.654478
-11.668933
-25.708674
25.939536
-24.388411
-19.535386
0.120920
-4.910351
4.640639
-13.466108
-18.357074
-14.835042
2.272534
-21.080148
-23.155942
13.801556
0.930473
2.780361
-15.688693
-6.686890
-4.319022
-13.940745
-8.012742
-13.519598
6.420740
-10.720816
1.890237
-19.852492
-10.719295
11.010587
-5.679384
4.961729
-19.854861
-19.057733
-8.850437
28.851906
5.077768
9.884716
-14.309679
27.675254
-49.009853
-23.869971
-76.238348
-4.218414
63.508858
41.808215
10.055697
-52.563817
10.188784
-112.117403
61.959582
23.825426
-57.117786
12.401266
139.649339
87.442788
17.959701
-103.747733
-108.413625
-15.240044
12.671472
-81.436150
-69.681334
64.805452
94.928068
-32.354374
-106.874906
46.006186
163.958050
96.787372
-37.349690
-103.466637
20.876156
91.073014
11.938597
-99.102889
-39.520127
14.962294
78.517491
31.930625
-36.987145
11.221568
35.350076
28.066434
-22.133078
-65.330206
-31.565667
65.992049
-17.460013
-48.203913
-26.334886
60.355302
27.397415
-10.928382
42.532104
12.165943
4.652172
-7.743642
11.131058
34.018360
14.797689
-35.709688
23.996005
-8.180178
21.011639
-26.101202
-50.394149
15.207323
-6.699488
37.372009
-57.527225
-17.160050
-42.816294
-22.432396
-11.301458
17.975115
5.623308
-4.038058
1.032977
-12.121907
0.835935
8.288012
-12.742394
-22.513089
105.802223
83.112654
-12.720738
16.855021
0.052129
22.034480
-26.971969
13.937655
9.296042
-5.005252
1.956123
-20.023021
0.017757
2.689203
-20.218914
17.196918
-5.405185
14.683882
-15.987307
8.465115
-17.323010
3.605541
12.211339
13.711832
-25.113290
-3.199685
7.330166
-22.740433
-5.005462
-3.658635
-12.377419
-23.664567
12.628869
25.437076
-48.252749
50.360456
20.587230
4.183184
9.937121
15.619790
-0.597133
8.489925
2.723740
8.426430
1.606491
8.375694
-6.315810
13.920576
3.569738
6.799959
-0.417501
16.878743
-5.143322
-12.321619
-16.949973
-16.883758
-1.080059
-23.832445
-9.508327
-33.684548
-65.005490
-104.922525
-1.519596
-7.064738
-15.432442
-29.829197
-38.848885
0.480334
-19.146288
7.330280
8.988654
10.697012
-13.179082
12.645752
-5.118252
-1.655161
5.486723
1.857368
-3.067729
-21.709501
9.037253
-6.618093
9.984869
36.637258
-70.265871
7.266628
-1.295051
-0.704255
9.162855
-6.455099
13.270471
26.913910
14.109800
4.180934
22.847302
-21.086197
-53.600320
-7.651524
9.853387
-7.171628
-8.204282
-13.658416
34.318145
-7.678407
26.596852
16.190813
5.061637
-2.251502
1.008199
-18.734586
2.427723
-18.482877
9.892413
1.142577
6.327428
-25.717686
8.136372
1.260517
8.315962
24.735150
20.697073
-1.594776
1.024707
60.544671
6.714395
-8.533026
1.689765
14.004946
6.216831
10.960465
19.322953
10.514406
7.231431
-6.822530
11.460804
5.854148
23.445921
6.664150
3.704499
-0.939328
22.349085
8.525086
21.449437
-6.200377
15.346037
4.292738
-4.392962
6.728749
-2.048155
-16.311108
1.083992
-3.992484
2.877775
15.951989
5.717191
64.014358
10.305738
20.886037
19.345348
-1.443643
6.625635
10.726158
15.533703
-10.985796
1.283296
-15.330623
-3.622780
-8.813485
-47.875447
14.138747
54.160458
-2.121930
-1.012612
7.005862
-8.764667
7.449427
4.424964
3.915072
44.698597
8.707427
11.941865
2.709769
27.118273
18.227108
-6.516143
2.482653
15.722589
10.255963
8.284170
2.804116
10.904842
2.052434
-1.214691
15.958563
10.681462
-8.755770
14.268603
47.598883
-4.740847
8.012809
23.184951
26.179636
0.761421
18.515560
7.546404
14.419717
21.756052
-2.977989
12.586852
18.027283
-21.304782
13.428725
-18.450867
0.997068
10.119489
51.407710
24.139543
19.371282
-5.443034
-1.689927
0.405624
-12.617590
6.222162
-31.864331
-8.653807
-7.665834
14.012818
15.222053
24.785834
11.353064
1.337126
2.923964
-1.252880
6.942966
1.159516
7.723828
4.389033
18.146552
-3.553501
-1.277676
-18.109598
-3.190121
-5.189646
-15.404252
-16.104511
-5.879824
-1.285737
-17.285202
-10.938648
-20.450790
7.432864
-18.763866
4.632597
-1.079964
-7.088873
-11.000484
6.280149
5.570815
10.465091
9.425042
16.280732
-12.385538
-23.529019
-1.167043
7.431139
16.114177
0.407589
14.635711
-4.946150
25.517336
-1.504402
-2.939226
34.381508
18.102148
23.371352
-33.081642
-19.539803
9.032655
-4.994998
-33.779809
23.001455
6.779619
-7.255873
-7.403522
-13.825843
20.151694
-5.168794
22.472501
7.141345
-3.670271
-2.746384
3.158051
-19.554153
10.585540
21.834322
8.344742
13.294242
0.170667
4.668457
-0.035491
-0.361002
34.977847
-2.687835
17.369228
-1.022821
16.112970
-16.997856
-8.609561
-63.062033
-29.306585
-27.918927
-31.437110
16.158351
-15.115850
25.766111
13.926574
29.851621
5.971278
33.068614
-24.797591
-39.249021
-9.361932
-23.594735
-19.875548
14.085148
16.558507
-50.142103
-18.888729
1.455085
1.091163
9.760457
3.944239
-10.879328
-3.485935
14.273236
18.489710
17.235454
-0.094086
9.030363
64.513253
18.059350
15.102046
-4.984521
1.426163
-12.467796
10.836703
32.646688
8.581375
10.928991
-0.751654
-7.165546
-4.233375
-17.754484
-1.299939
-29.473352
-1.979057
24.549125
7.635886
5.574253
14.212913
17.096926
-10.692170
20.066206
18.972476
-10.368324
27.963724
-26.900572
-1.635646
-7.838452
-27.229363
10.925925
11.963048
-3.436270
8.264845
-35.395103
-23.645191
17.528242
8.377217
-8.580569
7.641311
-8.526873
18.219492
-13.021566
16.533140
3.591732
-13.274741
-0.715228
2.226404
18.947558
12.397313
-6.071731
19.535436
6.446469
-0.631916
15.431386
3.001591
-36.275049
16.137996
-6.669215
7.739361
2.702251
14.462637
1.726783
-1.692680
-2.151691
-0.714242
-13.728806
-12.287887
12.931731
13.824864
-96.849419
5.267456
-0.426337
13.394061
-7.053515
-17.046299
4.441061
-39.673278
29.340875
-8.137344
82.975043
-76.284748
-2.248838
17.173291
13.816604
11.975385
10.812521
-3.669630
19.056299
18.496794
-7.693517
14.962682
-1.010623
-7.925752
9.055925
-4.213991
-32.175319
37.112522
-7.841654
-9.736161
11.014276
-4.363753
-2.283031
-0.992940
-6.715056
11.863514
-14.160893
6.405011
7.069180
4.919121
-7.500069
10.025867
-79.414258
-8.694880
-20.689848
-1.847836
-11.313399
-1.563041
3.690101
-6.492534
6.603738
14.604709
14.478284
20.950754
23.469342
-1.795726
-24.231309
10.369499
-43.906113
31.471591
-0.631019
7.832599
-4.699706
-9.418586
7.285023
-11.495658
2.839060
6.411272
14.021375
14.300294
-12.170986
-3.250695
-5.163817
-2.870969
0.920525
-6.885450
-0.698975
10.098472
-13.470511
30.178049
-71.054866
-81.970639
-53.936011
25.164933
0.992020
4.479355
-12.747243
4.293338
15.857905
1.824756
11.084513
7.821617
8.478398
7.564407
9.056798
11.307632
12.849230
3.639357
36.434132
18.340608
11.717680
-10.161077
18.736328
-131.885856
-8.536590
6.678396
9.293447
-68.931581
1.610496
19.794815
29.976656
4.673007
3.325644
6.972499
21.556638
-29.374425
34.248766
1.845354
27.425547
-30.208053
3.548618
8.433137
5.444823
-5.243066
-2.488064
22.143455
30.618889
3.508305
15.556029
29.677839
16.569398
7.291148
6.747897
-0.619095
12.807898
29.959240
0.339347
13.500393
2.728279
22.359497
17.172282
-0.961968
-7.127296
-1.875697
21.022267
4.928151
0.447705
4.469428
11.335803
10.922924
62.600666
5.230155
-17.662888
14.312401
-14.215366
11.421122
20.801704
-4.366849
-7.009242
6.130908
9.423192
5.184838
-13.883738
28.252332
6.064495
1.086717
28.278008
-15.133889
-12.321853
-4.290920
-7.997708
-37.357789
43.739937
2.096745
-16.917194
-21.247741
-21.148567
-6.558728
4.829726
-22.675938
-2.566317
-23.099659
-22.130471
-11.621703
20.293694
-27.410441
-6.753738
-4.119676
-26.820031
9.451825
1.534501
6.230860
-8.113237
6.212766
58.415947
1.205270
-28.804737
-31.862139
1.820314
0.160662
9.513599
10.467175
-13.011519
-14.235669
1.908715
6.176490
15.820146
16.446095
10.309410
-8.666631
1.690044
15.698704
20.311078
20.071396
1.788724
2.471753
4.043904
1.646602
-14.032270
-5.265049
4.646661
-37.731478
14.313659
-25.486201
25.576594
-16.671716
-4.883120
-1.561090
-9.717606
8.837630
-9.993094
5.679397
-70.190013
2.384834
2.467929
4.990525
0.199679
-3.255843
10.558400
-1.013493
-12.942666
20.584598
-4.691728
2.232614
1.763375
12.219675
-10.013996
-36.300857
3.837249
6.927035
-10.884687
1.941087
-14.783402
-2.386151
3.288545
-0.169854
-20.001969
3.682804
-11.543456
0.165354
-19.606924
-12.807454
-6.303302
7.812938
-12.602199
-4.010744
19.320722
-23.093440
-35.819882
57.100075
-25.304873
-95.515503
13.969745
-5.704674
-2.206316
-0.363115
-0.086024
-0.327549
4.064629
-91.367069
3.066439
10.732003
19.108956
6.022329
-45.638682
-38.841627
-11.403706
34.891028
30.958355
16.363022
0.797500
11.056863
8.628842
-3.706681
4.198631
6.558816
-2.601447
-16.741523
0.796454
-12.231398
-15.328912
-2.236280
-18.234788
-12.946669
-5.566125
8.172575
-34.583112
11.867501
-68.189263
-53.153883
56.232460
-9.993196
17.242468
13.250342
-0.894060
-0.313116
-11.824852
-7.797392
-26.549256
-13.898709
-13.258552
-6.077388
-6.271067
-37.495293
22.352837
-4.927826
-13.785817
-5.681630
-9.039855
-2.873242
21.858565
-35.610120
-43.950756
-17.806056
-26.105643
-3.337975
-28.896266
-2.494664
13.268349
-34.002854
3.674155
-1.906580
3.871140
14.791490
1.458951
-6.041361
-35.337358
6.961900
4.199181
-21.306108
3.811488
-15.488031
-3.610670
-2.416045
-8.494235
-12.594871
5.700381
-8.842779
-30.342202
6.334674
64.313497
23.185479
67.324159
42.620280
26.618251
7.473979
8.109156
9.546286
10.533212
19.608849
-43.405782
-17.287965
-11.179448
19.693055
10.737426
5.130026
5.090223
-4.227390
7.510737
9.436604
-1.641804
-20.418615
-4.506550
-9.647865
-40.956997
-11.321447
-3.764852
-4.625846
-16.447632
-15.011520
36.979405
14.575837
-14.311344
25.765092
-2.303665
-20.133672
1.110639
11.132136
-3.766841
-13.328257
-7.581365
-5.747627
14.451019
-5.429945
9.160092
-22.215077
-0.973214
-3.281825
-8.600918
5.166349
7.732995
-8.794103
0.986626
-21.612713
-3.837574
-7.702792
12.641405
-26.211562
-16.627266
-33.355124
-24.107218
-2.805292
-28.104451
6.599247
13.073499
4.128511
-13.154467
3.328734
4.906166
-8.693237
0.632909
7.387839
31.716518
-30.995890
-8.896388
-3.115423
-6.739004
14.719993
8.357608
-11.662412
2.791949
18.061178
1.201738
4.424366
-20.349958
1.749692
-32.143387
7.968186
-16.564447
7.738807
-11.416954
2.118486
0.274538
11.003379
7.185312
12.088204
53.870142
54.494874
51.121951
17.597234
9.826448
-0.876718
12.658206
11.865002
11.128057
3.439048
12.529334
23.730352
-16.466549
-27.567527
-21.767445
-31.543354
25.607932
-18.485680
-8.929528
-3.782920
-26.594711
-31.864683
-20.916728
-0.739944
29.490701
-6.338720
-29.897513
-15.507129
17.149207
2.914965
-2.668202
-4.255028
8.652521
-42.117717
8.218484
-9.876005
-4.625759
-10.004460
27.529291
-28.177478
2.974543
-5.163079
-33.897396
-0.800483
26.067257
-16.140466
22.836205
21.261314
0.052143
10.542775
1.418466
3.659917
13.045986
0.849416
15.972979
31.679646
20.202355
2.488801
-11.108832
2.280640
14.361629
4.474709
7.271523
10.379930
18.566961
10.373352
75.851806
93.588912
122.566280
-65.199595
23.633864
5.118804
-0.488507
12.159230
-9.910216
23.696659
-0.051376
-2.335275
9.414703
-13.227247
8.199554
5.214781
6.889342
17.183820
-78.226600
-19.415923
-15.022321
-25.197729
1.887384
0.576889
2.184644
59.957334
-12.237245
-6.206111
15.101017
1.217847
2.810152
9.493660
3.671614
4.512027
14.628636
-4.482545
4.230463
34.447370
-70.109218
3.908553
-16.073619
15.184737
-6.032465
-5.102990
-6.869095
16.545154
11.079124
8.492740
1.917456
-60.473609
-87.311819
-42.744992
-25.579846
6.747367
0.287558
11.071851
26.096176
-11.678285
-2.500239
3.466739
-9.342673
2.517488
15.878533
-16.867452
-25.138625
17.361832
14.128123
17.136909
8.675436
5.927968
12.320349
2.694860
5.471652
-6.224796
38.328441
-15.161572
-1.881895
-15.350978
-1.076024
-81.471084
-26.900852
-112.198611
-0.564905
19.120269
-0.940328
0.926224
-41.502353
30.935058
5.313006
-1.390927
13.416439
1.963748
-61.500136
17.796605
16.536264
-1.666450
-31.379448
95.535996
-52.594837
21.965034
8.684435
-32.713872
-1.533889
2.145451
-6.712084
-5.726762
-10.979295
-37.285694
41.838610
1.978853
14.791874
-1.968078
0.569450
4.311774
14.772367
11.497164
-0.928083
13.286581
6.600136
7.557909
-10.512597
7.769315
7.804877
6.787993
-94.523975
-64.715288
79.371536
-7.400351
-11.559552
8.513818
-17.148734
-1.985796
12.475824
24.622142
13.078292
-2.534632
34.837280
18.348537
-6.125664
-119.755994
7.508048
-9.578440
-6.250146
19.874126
29.152714
13.441637
6.313216
10.213047
-8.113845
-0.013441
0.389908
1.326922
18.516965
11.149127
18.053018
3.810333
0.980721
-1.372203
1.210929
-9.778227
0.834437
3.469389
-5.082954
-10.839345
3.073692
-3.531455
12.011290
6.226528
-106.815513
17.726758
-9.161428
-6.339712
-34.763895
45.512328
-9.443533
-5.298175
5.844872
7.571172
-15.205294
0.548826
6.564414
17.092752
10.960439
5.347569
9.658591
5.300611
4.655411
10.644150
4.595951
-19.686535
3.726225
-3.317965
5.929175
1.839280
7.366525
11.993923
10.258673
0.333107
6.837263
-0.982023
-6.955817
1.156874
17.141416
2.377822
8.055609
-3.216066
-7.940845
-17.207834
8.019423
-3.519728
8.558457
9.367491
5.315666
-1.694314
2.765147
-1.031976
2.170947
-5.070071
12.826040
3.557812
13.955565
36.928185
17.081524
2.942441
9.107206
6.438155
16.300513
-16.872647
-5.302208
3.986643
5.035038
-7.450512
-24.451564
17.856288
-13.900172
-14.073623
28.062503
-3.438507
10.652813
-13.670087
11.847031
-2.177640
13.181521
5.446928
-93.862627
9.023432
17.181059
-6.533859
12.662783
-12.249311
-5.363816
-7.802404
11.204897
11.590634
45.847948
-9.681651
-116.233145
-95.839951
6.541565
-19.944648
5.663864
14.486392
-68.159410
19.018951
14.044873
41.069045
-21.338927
3.294750
-4.048334
72.455032
21.677355
19.217234
-8.463802
-24.800393
-0.918749
20.154611
-39.722166
22.215461
-1.804605
-6.764445
3.816955
0.279194
-3.508334
2.998867
11.260405
-0.676701
-20.649078
-8.893377
8.173031
11.077658
12.222552
-19.455874
-1.167260
-7.065811
6.219792
-4.431835
10.848477
6.940966
-17.612261
-3.398126
-1.001596
-3.774193
29.841932
28.965505
-42.572093
31.841448
-14.411168
15.121762
2.056163
9.132292
-23.199935
3.937130
31.128288
-3.281285
7.780751
-79.269364
12.058378
11.098771
-9.899781
3.439644
-16.658259
-13.856987
13.160366
4.585315
16.640704
22.422009
9.660626
15.105708
-0.890572
-1.942790
-12.864060
-0.134195
-15.546046
0.616615
8.927827
13.434225
19.073945
-9.340093
12.513301
1.369573
-15.693608
3.021026
118.238396
14.371317
4.279582
-0.450519
25.707762
-0.738614
-1.475259
20.346076
-4.287222
-1.776214
-10.228348
6.326846
-30.532956
25.850985
11.762905
16.125793
-11.784682
9.138835
8.674313
7.797268
9.170510
-20.691828
22.624289
26.220781
18.637266
-15.376874
-8.886287
6.889544
1.875466
-8.333654
-18.677814
-6.574342
2.928459
13.610108
7.273044
-24.181906
6.146750
2.341387
3.702660
1.851265
9.247527
-15.389978
10.667258
29.039599
16.943921
8.635669
-9.259795
5.150982
1.111557
-6.235367
-16.526846
-13.788476
7.903618
1.326947
0.428161
-20.763753
23.001288
2.252799
10.541257
8.934782
-21.776322
-34.463748
12.952682
-3.078129
-11.914884
18.830154
-1.821375
16.364669
-1.644146
41.656252
1.285448
-32.353927
3.796726
3.684023
-12.912372
-12.379718
-1.789112
7.232860
16.433593
-0.124932
18.680447
-2.538078
6.807762
16.004235
-8.897652
-15.891730
-7.767799
-2.617223
36.945186
15.006035
3.004314
-16.515153
-5.800410
-3.107578
-3.607784
-10.811997
-15.821753
43.040706
3.176268
-46.804522
38.099027
28.479044
2.812034
-6.067646
-15.097780
-15.542247
-9.176809
11.091737
-15.980776
-23.363051
2.926677
0.785335
-8.644056
-29.924687
-7.719426
0.726482
-5.999993
10.067652
-0.188338
-7.110433
-9.048289
-23.104493
15.393642
16.814436
6.255113
-9.139425
18.225667
-0.581573
-11.628099
7.082638
6.069295
-6.404656
-18.663125
-4.948094
-3.200065
12.642400
19.439799
-2.122087
-18.937504
-4.008174
-25.540483
-2.860863
2.928184
-15.749009
-3.011705
-8.239895
-8.958432
16.524850
14.839219
41.701740
15.456999
20.043563
13.657909
21.475527
-11.218300
42.861145
2.372314
7.416071
-31.982976
-28.054500
18.973239
19.544011
7.976391
63.253924
4.405301
5.917091
10.629716
-24.179486
12.318431
8.692037
4.107838
5.647224
-3.248934
-6.553921
12.059581
14.481038
13.064420
10.425630
-6.956027
-10.223000
11.753456
12.984968
-11.811265
-14.993047
7.564648
-34.462953
9.630377
17.145808
5.770431
-3.949493
-1.621050
-10.320755
-14.118714
8.288807
-25.289963
-27.225212
6.997118
-0.589410
9.932582
-7.934392
-5.703003
4.614508
-19.295905
55.166242
-4.560873
-15.677740
-12.548865
6.097128
1.402113
-1.028318
-9.407011
-20.053466
5.260081
-1.639438
8.071451
-40.443263
23.914619
0.042181
-3.905680
-7.944721
2.058396
2.431474
-19.945031
-10.904152
32.695083
13.410856
4.203165
3.711254
4.783124
6.115165
-5.360165
-6.119482
22.881043
32.141843
13.379631
-11.013003
16.117076
14.290478
5.234313
-24.735144
-27.437523
-11.879377
-1.799147
-3.830443
2.008260
10.225607
3.232290
-6.442436
3.048966
9.634286
-16.921527
30.763432
0.905468
-18.088626
-0.966429
5.083791
19.648014
11.556116
-4.013489
7.430279
2.890619
-23.978287
13.855199
-17.467507
18.726509
17.310262
-34.878545
-0.387824
5.601626
-14.920911
9.599379
4.505072
30.355358
-35.278575
-22.611274
6.656003
-23.120983
10.479699
-15.551041
3.784128
1.277226
7.075382
19.280736
1.086429
15.437536
-3.850704
-13.956426
-3.180903
-13.045662
3.272421
4.325400
9.248072
12.873559
-12.782935
-19.213724
-23.091374
-0.639230
8.873306
8.418241
2.330607
13.790482
23.862340
14.660406
8.284440
13.434304
3.720715
13.168418
-29.122679
25.192011
10.660664
-38.920586
10.947913
11.235028
-3.921266
-4.774335
1.178104
12.945915
-1.169816
-0.592333
12.544996
-29.866415
27.178060
-4.363240
-20.559635
7.579412
3.789233
29.094468
9.408823
7.417154
17.636443
-2.160024
6.651227
-11.007813
4.989445
3.587454
13.801685
20.385075
3.182366
-3.940005
5.454904
3.453809
8.167646
8.821075
-3.479612
-16.634598
-18.950882
6.332556
13.420663
-18.361596
55.059214
2.850930
-42.846060
13.036451
-36.813392
-7.387737
-4.410397
2.346715
-2.814333
1.093999
-9.337687
-10.293926
-0.533803
10.268768
10.208462
-30.196923
46.124323
-63.220823
4.097754
7.811784
2.649001
35.165296
-25.064464
-16.088326
-12.674458
-0.129474
11.395729
7.407587
34.642786
5.994389
3.319541
-1.320446
12.792080
1.758590
-5.692005
27.642922
12.527714
-3.957049
-40.943283
1.576640
4.741056
-12.192586
26.179232
2.189587
-76.374668
-28.320064
-31.703457
10.779382
11.889525
3.558103
-18.474488
21.344950
28.851694
-0.058629
28.994152
9.488030
-18.017906
6.765088
17.616882
-23.506590
20.175888
35.861065
-12.135198
-41.479660
-94.012577
-2.524764
-9.119619
-17.829250
-11.626871
-7.228363
29.613832
13.014518
