# vtk DataFile Version 2.0
cantilever_tri3_mix
ASCII
DATASET POLYDATA
POINTS 561 float
0.000000 0.000000 0.000000
48.000000 44.000000 0.000000
48.000000 60.000000 0.000000
0.000000 44.000000 0.000000
2.892819 2.651751 0.000000
5.647885 5.177228 0.000000
8.271757 7.582444 0.000000
10.770683 9.873126 0.000000
13.150613 12.054728 0.000000
15.417212 14.132444 0.000000
17.575878 16.111222 0.000000
19.631751 17.995772 0.000000
21.589725 19.790581 0.000000
23.454462 21.499923 0.000000
25.230402 23.127868 0.000000
26.921773 24.678292 0.000000
28.532603 26.154886 0.000000
30.066727 27.561166 0.000000
31.527797 28.900481 0.000000
32.919293 30.176018 0.000000
34.244527 31.390816 0.000000
35.506654 32.547766 0.000000
36.708680 33.649623 0.000000
37.853467 34.699011 0.000000
38.943740 35.698428 0.000000
39.982095 36.650254 0.000000
40.971005 37.556755 0.000000
41.912824 38.420089 0.000000
42.809794 39.242312 0.000000
43.664052 40.025381 0.000000
44.477630 40.771161 0.000000
45.252467 41.481428 0.000000
45.990407 42.157873 0.000000
46.693207 42.802106 0.000000
47.362540 43.415662 0.000000
48.000000 45.000000 0.000000
48.000000 46.000000 0.000000
48.000000 47.000000 0.000000
48.000000 48.000000 0.000000
48.000000 49.000000 0.000000
48.000000 50.000000 0.000000
48.000000 51.000000 0.000000
48.000000 52.000000 0.000000
48.000000 53.000000 0.000000
48.000000 54.000000 0.000000
48.000000 55.000000 0.000000
48.000000 56.000000 0.000000
48.000000 57.000000 0.000000
48.000000 58.000000 0.000000
48.000000 59.000000 0.000000
47.362540 59.787513 0.000000
46.693207 59.564402 0.000000
45.990407 59.330136 0.000000
45.252467 59.084156 0.000000
44.477630 58.825877 0.000000
43.664052 58.554684 0.000000
42.809794 58.269931 0.000000
41.912824 57.970941 0.000000
40.971005 57.657002 0.000000
39.982095 57.327365 0.000000
38.943740 56.981247 0.000000
37.853467 56.617822 0.000000
36.708680 56.236227 0.000000
35.506654 55.835551 0.000000
34.244527 55.414842 0.000000
32.919293 54.973098 0.000000
31.527797 54.509266 0.000000
30.066727 54.022242 0.000000
28.532603 53.510868 0.000000
26.921773 52.973924 0.000000
25.230402 52.410134 0.000000
23.454462 51.818154 0.000000
21.589725 51.196575 0.000000
19.631751 50.543917 0.000000
17.575878 49.858626 0.000000
15.417212 49.139071 0.000000
13.150613 48.383538 0.000000
10.770683 47.590228 0.000000
8.271757 46.757252 0.000000
5.647885 45.882628 0.000000
2.892819 44.964273 0.000000
0.000000 41.250000 0.000000
0.000000 38.500000 0.000000
0.000000 35.750000 0.000000
0.000000 33.000000 0.000000
0.000000 30.250000 0.000000
0.000000 27.500000 0.000000
0.000000 24.750000 0.000000
0.000000 22.000000 0.000000
0.000000 19.250000 0.000000
0.000000 16.500000 0.000000
0.000000 13.750000 0.000000
0.000000 11.000000 0.000000
0.000000 8.250000 0.000000
0.000000 5.500000 0.000000
0.000000 2.750000 0.000000
2.892819 5.296284 0.000000
2.892819 7.940816 0.000000
2.892819 10.585349 0.000000
2.892819 13.229881 0.000000
2.892819 15.874414 0.000000
2.892819 18.518947 0.000000
2.892819 21.163479 0.000000
2.892819 23.808012 0.000000
2.892819 26.452545 0.000000
2.892819 29.097077 0.000000
2.892819 31.741610 0.000000
2.892819 34.386143 0.000000
2.892819 37.030675 0.000000
2.892819 39.675208 0.000000
2.892819 42.319740 0.000000
5.647885 7.721315 0.000000
5.647885 10.265403 0.000000
5.647885 12.809490 0.000000
5.647885 15.353578 0.000000
5.647885 17.897666 0.000000
5.647885 20.441753 0.000000
5.647885 22.985841 0.000000
5.647885 25.529928 0.000000
5.647885 28.074016 0.000000
5.647885 30.618103 0.000000
5.647885 33.162191 0.000000
5.647885 35.706278 0.000000
5.647885 38.250366 0.000000
5.647885 40.794453 0.000000
5.647885 43.338541 0.000000
8.271757 10.030870 0.000000
8.271757 12.479295 0.000000
8.271757 14.927721 0.000000
8.271757 17.376146 0.000000
8.271757 19.824572 0.000000
8.271757 22.272997 0.000000
8.271757 24.721423 0.000000
8.271757 27.169848 0.000000
8.271757 29.618274 0.000000
8.271757 32.066699 0.000000
8.271757 34.515125 0.000000
8.271757 36.963550 0.000000
8.271757 39.411976 0.000000
8.271757 41.860401 0.000000
8.271757 44.308827 0.000000
10.770683 12.230445 0.000000
10.770683 14.587764 0.000000
10.770683 16.945083 0.000000
10.770683 19.302402 0.000000
10.770683 21.659720 0.000000
10.770683 24.017039 0.000000
10.770683 26.374358 0.000000
10.770683 28.731677 0.000000
10.770683 31.088996 0.000000
10.770683 33.446315 0.000000
10.770683 35.803634 0.000000
10.770683 38.160952 0.000000
10.770683 40.518271 0.000000
10.770683 42.875590 0.000000
10.770683 45.232909 0.000000
13.150613 14.325279 0.000000
13.150613 16.595829 0.000000
13.150613 18.866380 0.000000
13.150613 21.136931 0.000000
13.150613 23.407481 0.000000
13.150613 25.678032 0.000000
13.150613 27.948582 0.000000
13.150613 30.219133 0.000000
13.150613 32.489683 0.000000
13.150613 34.760234 0.000000
13.150613 37.030785 0.000000
13.150613 39.301335 0.000000
13.150613 41.571886 0.000000
13.150613 43.842436 0.000000
13.150613 46.112987 0.000000
15.417212 16.320359 0.000000
15.417212 18.508273 0.000000
15.417212 20.696187 0.000000
15.417212 22.884101 0.000000
15.417212 25.072015 0.000000
15.417212 27.259929 0.000000
15.417212 29.447843 0.000000
15.417212 31.635758 0.000000
15.417212 33.823672 0.000000
15.417212 36.011586 0.000000
15.417212 38.199500 0.000000
15.417212 40.387414 0.000000
15.417212 42.575328 0.000000
15.417212 44.763242 0.000000
15.417212 46.951157 0.000000
17.575878 18.220435 0.000000
17.575878 20.329647 0.000000
17.575878 22.438860 0.000000
17.575878 24.548073 0.000000
17.575878 26.657286 0.000000
17.575878 28.766498 0.000000
17.575878 30.875711 0.000000
17.575878 32.984924 0.000000
17.575878 35.094137 0.000000
17.575878 37.203349 0.000000
17.575878 39.312562 0.000000
17.575878 41.421775 0.000000
17.575878 43.530988 0.000000
17.575878 45.640201 0.000000
17.575878 47.749413 0.000000
19.631751 20.030031 0.000000
19.631751 22.064290 0.000000
19.631751 24.098549 0.000000
19.631751 26.132808 0.000000
19.631751 28.167067 0.000000
19.631751 30.201326 0.000000
19.631751 32.235585 0.000000
19.631751 34.269844 0.000000
19.631751 36.304103 0.000000
19.631751 38.338362 0.000000
19.631751 40.372622 0.000000
19.631751 42.406881 0.000000
19.631751 44.441140 0.000000
19.631751 46.475399 0.000000
19.631751 48.509658 0.000000
21.589725 21.753456 0.000000
21.589725 23.716330 0.000000
21.589725 25.679205 0.000000
21.589725 27.642080 0.000000
21.589725 29.604954 0.000000
21.589725 31.567829 0.000000
21.589725 33.530703 0.000000
21.589725 35.493578 0.000000
21.589725 37.456453 0.000000
21.589725 39.419327 0.000000
21.589725 41.382202 0.000000
21.589725 43.345076 0.000000
21.589725 45.307951 0.000000
21.589725 47.270826 0.000000
21.589725 49.233700 0.000000
23.454462 23.394813 0.000000
23.454462 25.289702 0.000000
23.454462 27.184592 0.000000
23.454462 29.079481 0.000000
23.454462 30.974370 0.000000
23.454462 32.869260 0.000000
23.454462 34.764149 0.000000
23.454462 36.659039 0.000000
23.454462 38.553928 0.000000
23.454462 40.448817 0.000000
23.454462 42.343707 0.000000
23.454462 44.238596 0.000000
23.454462 46.133486 0.000000
23.454462 48.028375 0.000000
23.454462 49.923265 0.000000
25.230402 24.958010 0.000000
25.230402 26.788152 0.000000
25.230402 28.618293 0.000000
25.230402 30.448435 0.000000
25.230402 32.278576 0.000000
25.230402 34.108718 0.000000
25.230402 35.938860 0.000000
25.230402 37.769001 0.000000
25.230402 39.599143 0.000000
25.230402 41.429284 0.000000
25.230402 43.259426 0.000000
25.230402 45.089568 0.000000
25.230402 46.919709 0.000000
25.230402 48.749851 0.000000
25.230402 50.579992 0.000000
26.921773 26.446769 0.000000
26.921773 28.215246 0.000000
26.921773 29.983723 0.000000
26.921773 31.752200 0.000000
26.921773 33.520677 0.000000
26.921773 35.289154 0.000000
26.921773 37.057631 0.000000
26.921773 38.826108 0.000000
26.921773 40.594585 0.000000
26.921773 42.363062 0.000000
26.921773 44.131539 0.000000
26.921773 45.900016 0.000000
26.921773 47.668493 0.000000
26.921773 49.436970 0.000000
26.921773 51.205447 0.000000
28.532603 27.864635 0.000000
28.532603 29.574384 0.000000
28.532603 31.284133 0.000000
28.532603 32.993882 0.000000
28.532603 34.703630 0.000000
28.532603 36.413379 0.000000
28.532603 38.123128 0.000000
28.532603 39.832877 0.000000
28.532603 41.542626 0.000000
28.532603 43.252375 0.000000
28.532603 44.962124 0.000000
28.532603 46.671872 0.000000
28.532603 48.381621 0.000000
28.532603 50.091370 0.000000
28.532603 51.801119 0.000000
30.066727 29.214984 0.000000
30.066727 30.868801 0.000000
30.066727 32.522618 0.000000
30.066727 34.176435 0.000000
30.066727 35.830253 0.000000
30.066727 37.484070 0.000000
30.066727 39.137887 0.000000
30.066727 40.791704 0.000000
30.066727 42.445522 0.000000
30.066727 44.099339 0.000000
30.066727 45.753156 0.000000
30.066727 47.406973 0.000000
30.066727 49.060791 0.000000
30.066727 50.714608 0.000000
30.066727 52.368425 0.000000
31.527797 30.501030 0.000000
31.527797 32.101579 0.000000
31.527797 33.702128 0.000000
31.527797 35.302677 0.000000
31.527797 36.903226 0.000000
31.527797 38.503775 0.000000
31.527797 40.104324 0.000000
31.527797 41.704873 0.000000
31.527797 43.305422 0.000000
31.527797 44.905971 0.000000
31.527797 46.506520 0.000000
31.527797 48.107070 0.000000
31.527797 49.707619 0.000000
31.527797 51.308168 0.000000
31.527797 52.908717 0.000000
32.919293 31.725836 0.000000
32.919293 33.275653 0.000000
32.919293 34.825471 0.000000
32.919293 36.375288 0.000000
32.919293 37.925106 0.000000
32.919293 39.474923 0.000000
32.919293 41.024740 0.000000
32.919293 42.574558 0.000000
32.919293 44.124375 0.000000
32.919293 45.674193 0.000000
32.919293 47.224010 0.000000
32.919293 48.773828 0.000000
32.919293 50.323645 0.000000
32.919293 51.873463 0.000000
32.919293 53.423280 0.000000
34.244527 32.892318 0.000000
34.244527 34.393819 0.000000
34.244527 35.895321 0.000000
34.244527 37.396823 0.000000
34.244527 38.898324 0.000000
34.244527 40.399826 0.000000
34.244527 41.901327 0.000000
34.244527 43.402829 0.000000
[...]
POINT_DATA 561
SCALARS P float
LOOKUP_TABLE default
5.545775
5.725119
3.333511
-20.897751
5.017814
7.075672
1.600153
7.329167
14.541293
10.297272
9.689295
9.294832
9.378487
11.578910
11.387374
13.196361
9.619574
12.301082
11.586159
11.613350
13.082671
9.483448
12.514423
11.814656
11.172184
12.406830
11.207935
7.573240
11.692573
11.594935
7.968875
8.684380
10.823219
5.512918
-0.993952
5.954354
5.784766
5.284947
4.057949
2.319599
8.110701
6.065827
10.708138
0.708560
11.459219
2.492718
7.094363
4.004069
7.562963
3.429114
-0.239682
-3.006880
-0.541509
-5.376007
-2.678960
-3.096294
-5.993405
-5.540191
-7.552556
-4.899697
-4.519708
-4.964772
-8.482914
-8.040149
-6.380094
-6.628988
-9.452811
-10.044883
-5.994776
-9.597193
-9.976923
-10.108508
-8.050108
-10.908436
-9.586816
-11.621137
-11.842003
-14.843365
-11.737933
-14.096130
-10.019080
-15.716722
-19.131391
-0.949884
-4.557590
1.076212
4.702233
2.820785
8.152169
4.869023
8.477973
5.614164
6.865964
5.825138
5.644006
5.609965
6.025578
5.124214
6.721030
5.016678
6.534538
7.344476
2.653055
7.956105
-3.199206
6.889866
-9.984084
1.048972
-9.302614
-7.019247
-13.990198
5.523114
10.194470
6.307824
10.577768
8.084264
8.676263
5.503692
9.087868
-3.028826
8.927105
-10.085638
-3.256437
-12.955328
-12.540235
-14.817412
3.204905
4.723308
1.279657
3.742270
-0.156142
7.411158
-5.842435
12.417778
-11.979393
12.272507
-9.924796
2.975815
-8.076569
-8.195526
-7.217099
4.177258
11.053087
4.085099
7.243244
3.117381
8.823130
-5.176308
12.189649
-11.859027
9.880268
-9.534202
1.905376
-3.114790
-7.120166
-2.021945
1.869612
17.639179
0.065922
15.317316
-3.147765
14.434240
-7.390750
9.929456
-5.768681
-1.096379
-7.028888
-13.163500
-7.652885
-16.166129
-6.745439
5.857862
10.523876
5.684346
8.275988
6.305933
5.778106
6.342446
0.448256
3.066172
-2.126058
4.169726
-5.291164
4.498835
-15.851176
-2.544145
7.523091
10.561366
6.414068
9.285001
4.401545
7.482604
0.398093
5.737406
-2.148284
-2.386357
-5.122879
-7.614970
-5.106283
-10.247569
-7.769046
10.197253
7.466959
9.393091
4.992727
6.926969
1.568685
2.605298
0.291995
2.784435
-0.479942
2.464009
-4.535507
-1.672676
-9.416901
-6.875919
8.741211
8.344954
6.756221
6.958015
4.388766
8.732923
3.534128
3.817403
0.629344
-1.393777
-4.310620
-5.449022
-4.884424
-8.819286
-9.029976
11.986679
11.529094
8.597901
9.161586
4.833446
4.429701
1.321148
0.385037
-0.850099
-0.344290
-1.541529
-1.829900
-5.291042
-6.891731
-8.218225
11.463314
8.262784
10.615321
5.033626
8.803343
2.064514
7.650821
4.243630
0.766928
-0.146704
-4.563636
-4.284354
-3.670548
-8.378470
-6.868505
11.195905
9.887384
10.253633
7.380581
10.808055
1.311915
-0.208224
1.899711
-1.351575
1.316237
-1.037434
-4.557539
-6.078084
-5.821885
-9.208284
12.937721
6.641172
9.221358
2.534126
9.255180
9.686088
7.800411
5.890773
4.683206
-0.666979
1.436812
-2.267751
-2.448782
-6.820018
-8.955398
12.433152
12.443992
13.052785
4.755442
9.815983
-0.036374
0.303620
-0.348826
-5.717181
-1.667482
-6.220333
-3.553373
-5.993414
-5.273962
-5.862204
10.756411
8.293302
9.836921
2.708469
4.229707
6.498390
5.641932
4.591516
8.212358
1.987022
-0.924223
-0.790594
-5.474822
-6.740749
-7.586606
11.784436
8.016221
14.349137
11.240040
11.086893
5.399029
3.626438
3.306502
-3.463602
1.467809
-1.569916
-5.313440
-3.290719
-6.574886
-7.268220
13.360822
7.449370
9.723458
5.551884
2.112663
6.077263
0.935760
0.997664
-1.012357
1.607680
-2.697710
-2.284382
-0.476414
-4.666774
-6.882025
12.293830
7.842261
3.213961
4.671943
6.434562
2.993500
3.980289
5.931441
0.067469
-2.209812
3.033310
-5.903184
-5.023124
-4.713980
-7.191121
13.077365
15.303194
15.971085
13.411400
10.220057
10.236361
4.007478
3.097052
3.321287
-2.557957
-2.244823
-2.756773
-6.626933
-3.726841
-4.219233
9.140116
6.777665
6.581476
0.677984
5.291012
1.818994
3.461882
3.975111
6.869984
0.779031
4.147104
-0.071901
-1.102161
-5.725883
-6.685345
8.991973
5.054006
6.982863
2.861981
-2.389948
2.582589
-3.533953
-4.767176
-1.674262
-0.391700
-4.746341
0.277738
-1.753883
-3.987705
-4.547727
15.369797
12.791194
17.873989
17.738639
14.043541
12.333810
8.414762
2.573187
2.279181
0.065377
-1.694929
-6.265214
-3.334848
-4.555179
-8.384853
9.474856
6.538598
1.666808
6.589735
2.961128
7.418468
6.162075
5.671099
2.939906
3.661817
1.261024
2.714103
-0.249893
1.838006
-2.373559
9.672599
6.730599
-1.273795
3.865883
-2.755551
-1.418090
3.091231
0.780135
0.044744
-2.952779
3.299672
-2.878217
-8.572645
-5.055762
-3.051943
8.972031
13.626196
5.806114
7.944220
8.729648
0.834861
0.162304
5.671910
3.410542
2.591777
-0.516402
5.297242
2.347185
-5.771407
-1.912682
10.705261
14.728968
9.471257
6.663084
10.209417
9.055811
2.226859
0.712835
5.291618
0.666297
-5.115978
0.355375
-0.363436
-5.127890
-2.775090
3.728546
5.053904
8.732951
-1.794710
2.858960
6.199188
4.715188
5.608968
4.082686
6.581113
4.316296
1.763630
7.283394
-2.130305
-4.009720
7.354183
-0.057083
9.651683
6.319302
-4.430210
3.440958
0.188842
1.089794
-0.180243
2.204724
1.336766
2.027821
1.413680
0.070757
-4.445926
12.181470
0.486220
4.090105
10.806445
8.862326
4.248285
4.762604
6.785336
5.922954
2.841153
2.561564
2.140504
2.861646
3.809375
-2.910830
11.277926
4.991458
3.175640
7.892402
2.507769
7.780961
3.409394
7.964445
7.136532
8.861800
-1.252338
4.436826
1.486352
4.420494
-1.115326
2.630662
1.714816
1.076660
2.256274
7.196802
5.626857
5.187824
2.833454
5.125813
8.939983
9.488410
7.661554
5.016648
5.620920
2.093673
