# vtk DataFile Version 2.0
cantilever_tri3_mix
ASCII
DATASET POLYDATA
POINTS 561 float
0.000000 0.000000 0.000000
48.000000 44.000000 0.000000
48.000000 60.000000 0.000000
0.000000 44.000000 0.000000
2.892819 2.651751 0.000000
5.647885 5.177228 0.000000
8.271757 7.582444 0.000000
10.770683 9.873126 0.000000
13.150613 12.054728 0.000000
15.417212 14.132444 0.000000
17.575878 16.111222 0.000000
19.631751 17.995772 0.000000
21.589725 19.790581 0.000000
23.454462 21.499923 0.000000
25.230402 23.127868 0.000000
26.921773 24.678292 0.000000
28.532603 26.154886 0.000000
30.066727 27.561166 0.000000
31.527797 28.900481 0.000000
32.919293 30.176018 0.000000
34.244527 31.390816 0.000000
35.506654 32.547766 0.000000
36.708680 33.649623 0.000000
37.853467 34.699011 0.000000
38.943740 35.698428 0.000000
39.982095 36.650254 0.000000
40.971005 37.556755 0.000000
41.912824 38.420089 0.000000
42.809794 39.242312 0.000000
43.664052 40.025381 0.000000
44.477630 40.771161 0.000000
45.252467 41.481428 0.000000
45.990407 42.157873 0.000000
46.693207 42.802106 0.000000
47.362540 43.415662 0.000000
48.000000 45.000000 0.000000
48.000000 46.000000 0.000000
48.000000 47.000000 0.000000
48.000000 48.000000 0.000000
48.000000 49.000000 0.000000
48.000000 50.000000 0.000000
48.000000 51.000000 0.000000
48.000000 52.000000 0.000000
48.000000 53.000000 0.000000
48.000000 54.000000 0.000000
48.000000 55.000000 0.000000
48.000000 56.000000 0.000000
48.000000 57.000000 0.000000
48.000000 58.000000 0.000000
48.000000 59.000000 0.000000
47.362540 59.787513 0.000000
46.693207 59.564402 0.000000
45.990407 59.330136 0.000000
45.252467 59.084156 0.000000
44.477630 58.825877 0.000000
43.664052 58.554684 0.000000
42.809794 58.269931 0.000000
41.912824 57.970941 0.000000
40.971005 57.657002 0.000000
39.982095 57.327365 0.000000
38.943740 56.981247 0.000000
37.853467 56.617822 0.000000
36.708680 56.236227 0.000000
35.506654 55.835551 0.000000
34.244527 55.414842 0.000000
32.919293 54.973098 0.000000
31.527797 54.509266 0.000000
30.066727 54.022242 0.000000
28.532603 53.510868 0.000000
26.921773 52.973924 0.000000
25.230402 52.410134 0.000000
23.454462 51.818154 0.000000
21.589725 51.196575 0.000000
19.631751 50.543917 0.000000
17.575878 49.858626 0.000000
15.417212 49.139071 0.000000
13.150613 48.383538 0.000000
10.770683 47.590228 0.000000
8.271757 46.757252 0.000000
5.647885 45.882628 0.000000
2.892819 44.964273 0.000000
0.000000 41.250000 0.000000
0.000000 38.500000 0.000000
0.000000 35.750000 0.000000
0.000000 33.000000 0.000000
0.000000 30.250000 0.000000
0.000000 27.500000 0.000000
0.000000 24.750000 0.000000
0.000000 22.000000 0.000000
0.000000 19.250000 0.000000
0.000000 16.500000 0.000000
0.000000 13.750000 0.000000
0.000000 11.000000 0.000000
0.000000 8.250000 0.000000
0.000000 5.500000 0.000000
0.000000 2.750000 0.000000
2.892819 5.296284 0.000000
2.892819 7.940816 0.000000
2.892819 10.585349 0.000000
2.892819 13.229881 0.000000
2.892819 15.874414 0.000000
2.892819 18.518947 0.000000
2.892819 21.163479 0.000000
2.892819 23.808012 0.000000
2.892819 26.452545 0.000000
2.892819 29.097077 0.000000
2.892819 31.741610 0.000000
2.892819 34.386143 0.000000
2.892819 37.030675 0.000000
2.892819 39.675208 0.000000
2.892819 42.319740 0.000000
5.647885 7.721315 0.000000
5.647885 10.265403 0.000000
5.647885 12.809490 0.000000
5.647885 15.353578 0.000000
5.647885 17.897666 0.000000
5.647885 20.441753 0.000000
5.647885 22.985841 0.000000
5.647885 25.529928 0.000000
5.647885 28.074016 0.000000
5.647885 30.618103 0.000000
5.647885 33.162191 0.000000
5.647885 35.706278 0.000000
5.647885 38.250366 0.000000
5.647885 40.794453 0.000000
5.647885 43.338541 0.000000
8.271757 10.030870 0.000000
8.271757 12.479295 0.000000
8.271757 14.927721 0.000000
8.271757 17.376146 0.000000
8.271757 19.824572 0.000000
8.271757 22.272997 0.000000
8.271757 24.721423 0.000000
8.271757 27.169848 0.000000
8.271757 29.618274 0.000000
8.271757 32.066699 0.000000
8.271757 34.515125 0.000000
8.271757 36.963550 0.000000
8.271757 39.411976 0.000000
8.271757 41.860401 0.000000
8.271757 44.308827 0.000000
10.770683 12.230445 0.000000
10.770683 14.587764 0.000000
10.770683 16.945083 0.000000
10.770683 19.302402 0.000000
10.770683 21.659720 0.000000
10.770683 24.017039 0.000000
10.770683 26.374358 0.000000
10.770683 28.731677 0.000000
10.770683 31.088996 0.000000
10.770683 33.446315 0.000000
10.770683 35.803634 0.000000
10.770683 38.160952 0.000000
10.770683 40.518271 0.000000
10.770683 42.875590 0.000000
10.770683 45.232909 0.000000
13.150613 14.325279 0.000000
13.150613 16.595829 0.000000
13.150613 18.866380 0.000000
13.150613 21.136931 0.000000
13.150613 23.407481 0.000000
13.150613 25.678032 0.000000
13.150613 27.948582 0.000000
13.150613 30.219133 0.000000
13.150613 32.489683 0.000000
13.150613 34.760234 0.000000
13.150613 37.030785 0.000000
13.150613 39.301335 0.000000
13.150613 41.571886 0.000000
13.150613 43.842436 0.000000
13.150613 46.112987 0.000000
15.417212 16.320359 0.000000
15.417212 18.508273 0.000000
15.417212 20.696187 0.000000
15.417212 22.884101 0.000000
15.417212 25.072015 0.000000
15.417212 27.259929 0.000000
15.417212 29.447843 0.000000
15.417212 31.635758 0.000000
15.417212 33.823672 0.000000
15.417212 36.011586 0.000000
15.417212 38.199500 0.000000
15.417212 40.387414 0.000000
15.417212 42.575328 0.000000
15.417212 44.763242 0.000000
15.417212 46.951157 0.000000
17.575878 18.220435 0.000000
17.575878 20.329647 0.000000
17.575878 22.438860 0.000000
17.575878 24.548073 0.000000
17.575878 26.657286 0.000000
17.575878 28.766498 0.000000
17.575878 30.875711 0.000000
17.575878 32.984924 0.000000
17.575878 35.094137 0.000000
17.575878 37.203349 0.000000
17.575878 39.312562 0.000000
17.575878 41.421775 0.000000
17.575878 43.530988 0.000000
17.575878 45.640201 0.000000
17.575878 47.749413 0.000000
19.631751 20.030031 0.000000
19.631751 22.064290 0.000000
19.631751 24.098549 0.000000
19.631751 26.132808 0.000000
19.631751 28.167067 0.000000
19.631751 30.201326 0.000000
19.631751 32.235585 0.000000
19.631751 34.269844 0.000000
19.631751 36.304103 0.000000
19.631751 38.338362 0.000000
19.631751 40.372622 0.000000
19.631751 42.406881 0.000000
19.631751 44.441140 0.000000
19.631751 46.475399 0.000000
19.631751 48.509658 0.000000
21.589725 21.753456 0.000000
21.589725 23.716330 0.000000
21.589725 25.679205 0.000000
21.589725 27.642080 0.000000
21.589725 29.604954 0.000000
21.589725 31.567829 0.000000
21.589725 33.530703 0.000000
21.589725 35.493578 0.000000
21.589725 37.456453 0.000000
21.589725 39.419327 0.000000
21.589725 41.382202 0.000000
21.589725 43.345076 0.000000
21.589725 45.307951 0.000000
21.589725 47.270826 0.000000
21.589725 49.233700 0.000000
23.454462 23.394813 0.000000
23.454462 25.289702 0.000000
23.454462 27.184592 0.000000
23.454462 29.079481 0.000000
23.454462 30.974370 0.000000
23.454462 32.869260 0.000000
23.454462 34.764149 0.000000
23.454462 36.659039 0.000000
23.454462 38.553928 0.000000
23.454462 40.448817 0.000000
23.454462 42.343707 0.000000
23.454462 44.238596 0.000000
23.454462 46.133486 0.000000
23.454462 48.028375 0.000000
23.454462 49.923265 0.000000
25.230402 24.958010 0.000000
25.230402 26.788152 0.000000
25.230402 28.618293 0.000000
25.230402 30.448435 0.000000
25.230402 32.278576 0.000000
25.230402 34.108718 0.000000
25.230402 35.938860 0.000000
25.230402 37.769001 0.000000
25.230402 39.599143 0.000000
25.230402 41.429284 0.000000
25.230402 43.259426 0.000000
25.230402 45.089568 0.000000
25.230402 46.919709 0.000000
25.230402 48.749851 0.000000
25.230402 50.579992 0.000000
26.921773 26.446769 0.000000
26.921773 28.215246 0.000000
26.921773 29.983723 0.000000
26.921773 31.752200 0.000000
26.921773 33.520677 0.000000
26.921773 35.289154 0.000000
26.921773 37.057631 0.000000
26.921773 38.826108 0.000000
26.921773 40.594585 0.000000
26.921773 42.363062 0.000000
26.921773 44.131539 0.000000
26.921773 45.900016 0.000000
26.921773 47.668493 0.000000
26.921773 49.436970 0.000000
26.921773 51.205447 0.000000
28.532603 27.864635 0.000000
28.532603 29.574384 0.000000
28.532603 31.284133 0.000000
28.532603 32.993882 0.000000
28.532603 34.703630 0.000000
28.532603 36.413379 0.000000
28.532603 38.123128 0.000000
28.532603 39.832877 0.000000
28.532603 41.542626 0.000000
28.532603 43.252375 0.000000
28.532603 44.962124 0.000000
28.532603 46.671872 0.000000
28.532603 48.381621 0.000000
28.532603 50.091370 0.000000
28.532603 51.801119 0.000000
30.066727 29.214984 0.000000
30.066727 30.868801 0.000000
30.066727 32.522618 0.000000
30.066727 34.176435 0.000000
30.066727 35.830253 0.000000
30.066727 37.484070 0.000000
30.066727 39.137887 0.000000
30.066727 40.791704 0.000000
30.066727 42.445522 0.000000
30.066727 44.099339 0.000000
30.066727 45.753156 0.000000
30.066727 47.406973 0.000000
30.066727 49.060791 0.000000
30.066727 50.714608 0.000000
30.066727 52.368425 0.000000
31.527797 30.501030 0.000000
31.527797 32.101579 0.000000
31.527797 33.702128 0.000000
31.527797 35.302677 0.000000
31.527797 36.903226 0.000000
31.527797 38.503775 0.000000
31.527797 40.104324 0.000000
31.527797 41.704873 0.000000
31.527797 43.305422 0.000000
31.527797 44.905971 0.000000
31.527797 46.506520 0.000000
31.527797 48.107070 0.000000
31.527797 49.707619 0.000000
31.527797 51.308168 0.000000
31.527797 52.908717 0.000000
32.919293 31.725836 0.000000
32.919293 33.275653 0.000000
32.919293 34.825471 0.000000
32.919293 36.375288 0.000000
32.919293 37.925106 0.000000
32.919293 39.474923 0.000000
32.919293 41.024740 0.000000
32.919293 42.574558 0.000000
32.919293 44.124375 0.000000
32.919293 45.674193 0.000000
32.919293 47.224010 0.000000
32.919293 48.773828 0.000000
32.919293 50.323645 0.000000
32.919293 51.873463 0.000000
32.919293 53.423280 0.000000
34.244527 32.892318 0.000000
34.244527 34.393819 0.000000
34.244527 35.895321 0.000000
34.244527 37.396823 0.000000
34.244527 38.898324 0.000000
34.244527 40.399826 0.000000
34.244527 41.901327 0.000000
34.244527 43.402829 0.000000
[...]
POINT_DATA 561
VECTORS U float
0.004394 0.017166 0.000000
-5.501896 25.491345 0.000000
-19.818235 27.498528 0.000000
-0.027722 0.432528 0.000000
0.013792 0.697940 0.000000
0.016375 1.299589 0.000000
0.072319 1.823110 0.000000
0.191713 2.292232 0.000000
0.359213 2.752555 0.000000
0.561737 3.251177 0.000000
0.783910 3.812445 0.000000
0.996754 4.439837 0.000000
1.168699 5.137658 0.000000
1.290160 5.903778 0.000000
1.361689 6.731485 0.000000
1.376032 7.610797 0.000000
1.334438 8.528894 0.000000
1.235241 9.471550 0.000000
1.079949 10.434375 0.000000
0.881571 11.412370 0.000000
0.646895 12.398283 0.000000
0.374496 13.386710 0.000000
0.067655 14.370252 0.000000
-0.268438 15.344466 0.000000
-0.629714 16.309063 0.000000
-1.013681 17.262041 0.000000
-1.413621 18.198594 0.000000
-1.824230 19.114199 0.000000
-2.244491 20.007127 0.000000
-2.677089 20.877045 0.000000
-3.123210 21.723224 0.000000
-3.583507 22.543331 0.000000
-4.056814 23.333811 0.000000
-4.539437 24.090344 0.000000
-5.023841 24.810302 0.000000
-6.294484 25.528605 0.000000
-7.055512 25.594497 0.000000
-7.793724 25.681834 0.000000
-8.523414 25.783389 0.000000
-9.257109 25.895584 0.000000
-10.001562 26.020050 0.000000
-10.765649 26.157649 0.000000
-11.561938 26.307176 0.000000
-12.394396 26.467834 0.000000
-13.260890 26.635760 0.000000
-14.167507 26.806299 0.000000
-15.124065 26.974859 0.000000
-16.139962 27.134810 0.000000
-17.234116 27.278939 0.000000
-18.440020 27.400849 0.000000
-19.454919 26.537692 0.000000
-19.090726 25.610468 0.000000
-18.721631 24.709037 0.000000
-18.344765 23.825386 0.000000
-17.957982 22.949534 0.000000
-17.559543 22.072398 0.000000
-17.147920 21.187408 0.000000
-16.722214 20.291310 0.000000
-16.280934 19.383174 0.000000
-15.822578 18.462796 0.000000
-15.346400 17.528655 0.000000
-14.851982 16.579671 0.000000
-14.337518 15.619168 0.000000
-13.801016 14.652362 0.000000
-13.239984 13.677993 0.000000
-12.651769 12.693189 0.000000
-12.037197 11.706491 0.000000
-11.397165 10.733168 0.000000
-10.731723 9.777290 0.000000
-10.043711 8.842125 0.000000
-9.335542 7.932250 0.000000
-8.611475 7.037869 0.000000
-7.874770 6.170507 0.000000
-7.120605 5.353563 0.000000
-6.345494 4.597203 0.000000
-5.548306 3.900855 0.000000
-4.744086 3.226107 0.000000
-3.973708 2.595177 0.000000
-3.182216 2.068773 0.000000
-2.229539 1.634291 0.000000
-1.087213 1.155087 0.000000
0.009484 -0.003167 0.000000
-0.002329 -0.090625 0.000000
-0.003724 -0.043919 0.000000
0.000224 0.008968 0.000000
0.003198 0.018369 0.000000
0.001168 0.000471 0.000000
0.000926 -0.013346 0.000000
0.000363 -0.015246 0.000000
-0.001525 -0.007289 0.000000
-0.001188 0.004865 0.000000
0.002266 0.013440 0.000000
0.001894 0.012802 0.000000
-0.001162 0.005209 0.000000
-0.002413 -0.006495 0.000000
-0.000406 -0.011241 0.000000
0.006329 0.688929 0.000000
0.012544 0.669444 0.000000
0.025712 0.630509 0.000000
0.039646 0.576146 0.000000
0.050725 0.502444 0.000000
0.063696 0.410597 0.000000
0.073466 0.304339 0.000000
0.071259 0.190649 0.000000
0.057460 0.075476 0.000000
0.043211 -0.022797 0.000000
0.035076 -0.084517 0.000000
0.023804 -0.104339 0.000000
-0.031166 -0.060714 0.000000
-0.186403 0.102423 0.000000
-0.507638 0.473460 0.000000
0.047362 1.283148 0.000000
0.087732 1.229927 0.000000
0.128366 1.147109 0.000000
0.163285 1.033101 0.000000
0.195560 0.892119 0.000000
0.219537 0.735287 0.000000
0.226463 0.574876 0.000000
0.213182 0.413696 0.000000
0.176854 0.264018 0.000000
0.117487 0.151628 0.000000
0.037259 0.110922 0.000000
-0.079700 0.162239 0.000000
-0.294170 0.321130 0.000000
-0.681058 0.606667 0.000000
-1.314776 1.044748 0.000000
0.152551 1.787602 0.000000
0.230581 1.708400 0.000000
0.300041 1.589046 0.000000
0.358452 1.433004 0.000000
0.397341 1.255772 0.000000
0.408874 1.075179 0.000000
0.395047 0.901659 0.000000
0.349759 0.743060 0.000000
0.258013 0.612332 0.000000
0.112630 0.536440 0.000000
-0.080810 0.548788 0.000000
-0.345723 0.665768 0.000000
-0.740881 0.888902 0.000000
-1.332395 1.213827 0.000000
-2.159639 1.620144 0.000000
0.313193 2.242644 0.000000
0.425384 2.147966 0.000000
0.520125 2.010186 0.000000
0.581756 1.840520 0.000000
0.599564 1.657923 0.000000
0.580456 1.480498 0.000000
0.526382 1.323340 0.000000
0.420641 1.196110 0.000000
0.245540 1.107189 0.000000
-0.003470 1.076751 0.000000
-0.324308 1.130051 0.000000
-0.741799 1.280132 0.000000
-1.299672 1.525628 0.000000
-2.036296 1.845568 0.000000
-2.952791 2.210273 0.000000
0.513327 2.696593 0.000000
0.650368 2.598280 0.000000
0.746664 2.460625 0.000000
0.783290 2.297630 0.000000
0.764291 2.127534 0.000000
0.699478 1.972721 0.000000
0.582451 1.847721 0.000000
0.397704 1.757748 0.000000
0.131302 1.707961 0.000000
-0.223510 1.714973 0.000000
-0.669820 1.796461 0.000000
-1.225258 1.962566 0.000000
-1.912002 2.205545 0.000000
-2.745492 2.505003 0.000000
-3.707823 2.842790 0.000000
0.733009 3.189449 0.000000
0.869548 3.095518 0.000000
0.939461 2.970467 0.000000
0.935824 2.824066 0.000000
0.868431 2.678127 0.000000
0.742344 2.553151 0.000000
0.550427 2.460972 0.000000
0.282825 2.405085 0.000000
-0.076742 2.391132 0.000000
-0.535350 2.428809 0.000000
-1.094266 2.530305 0.000000
-1.760765 2.698030 0.000000
-2.544242 2.924876 0.000000
-3.446583 3.199948 0.000000
-4.456639 3.519069 0.000000
0.944436 3.746342 0.000000
1.051306 3.662547 0.000000
1.078681 3.553690 0.000000
1.024805 3.430061 0.000000
0.898447 3.312091 0.000000
0.701731 3.217011 0.000000
0.432265 3.154848 0.000000
0.080276 3.130480 0.000000
-0.370403 3.145871 0.000000
-0.921831 3.206584 0.000000
-1.572107 3.316923 0.000000
-2.323495 3.477707 0.000000
-3.177904 3.686676 0.000000
-4.136129 3.939151 0.000000
-5.198478 4.239023 0.000000
1.119256 4.376248 0.000000
1.180513 4.304430 0.000000
1.155495 4.213272 0.000000
1.043450 4.113726 0.000000
0.850460 4.022171 0.000000
0.580036 3.954568 0.000000
0.234471 3.920341 0.000000
-0.199926 3.919743 0.000000
-0.733055 3.954642 0.000000
-1.360291 4.027519 0.000000
-2.082620 4.139697 0.000000
-2.900161 4.294930 0.000000
-3.810840 4.492477 0.000000
-4.820116 4.732035 0.000000
-5.931015 5.016996 0.000000
1.241772 5.080170 0.000000
1.248742 5.018273 0.000000
1.164496 4.944277 0.000000
0.988407 4.866714 0.000000
0.725708 4.800797 0.000000
0.385863 4.758745 0.000000
-0.033371 4.744285 0.000000
-0.543512 4.759294 0.000000
-1.144048 4.805430 0.000000
-1.835245 4.884408 0.000000
-2.618219 5.000726 0.000000
-3.488688 5.155555 0.000000
-4.449223 5.348942 0.000000
-5.503996 5.581979 0.000000
-6.651736 5.853392 0.000000
1.310047 5.851156 0.000000
1.254205 5.798310 0.000000
1.104460 5.739021 0.000000
0.860606 5.681040 0.000000
0.532815 5.635689 0.000000
0.129349 5.610891 0.000000
-0.357559 5.610297 0.000000
-0.931484 5.636304 0.000000
-1.592045 5.691107 0.000000
-2.341486 5.777980 0.000000
-3.175618 5.898469 0.000000
-4.092228 6.054057 0.000000
-5.094522 6.245117 0.000000
-6.184331 6.470968 0.000000
-7.359945 6.732781 0.000000
1.318884 6.682818 0.000000
1.196280 6.637166 0.000000
0.978445 6.589608 0.000000
0.670358 6.546406 0.000000
0.285320 6.516080 0.000000
-0.179673 6.504597 0.000000
-0.727404 6.516153 0.000000
-1.357815 6.552439 0.000000
-2.074461 6.616220 0.000000
-2.872070 6.708972 0.000000
-3.747956 6.830438 0.000000
-4.704263 6.983708 0.000000
-5.739385 7.168776 0.000000
-6.857884 7.385079 0.000000
-8.059055 7.637873 0.000000
1.268705 7.565595 0.000000
1.076924 7.525090 0.000000
0.793354 7.486586 0.000000
0.430332 7.454811 0.000000
-0.012438 7.436383 0.000000
-0.535069 7.437315 0.000000
-1.135690 7.458845 0.000000
-1.819276 7.503849 0.000000
-2.580977 7.573994 0.000000
-3.416019 7.668243 0.000000
-4.328590 7.789277 0.000000
-5.315479 7.938709 0.000000
-6.377687 8.116439 0.000000
-7.521718 8.324492 0.000000
-8.744224 8.564663 0.000000
1.159772 8.486617 0.000000
0.900243 8.450510 0.000000
0.561649 8.418761 0.000000
0.143272 8.396053 0.000000
-0.355152 8.388731 0.000000
-0.927419 8.398831 0.000000
-1.578099 8.428713 0.000000
-2.306035 8.480162 0.000000
-3.101712 8.553507 0.000000
-3.970614 8.649210 0.000000
-4.913560 8.769977 0.000000
-5.924275 8.916556 0.000000
-7.010230 9.089210 0.000000
-8.173363 9.289695 0.000000
-9.411241 9.516996 0.000000
0.994655 9.433876 0.000000
0.679446 9.401875 0.000000
0.286417 9.376525 0.000000
-0.187784 9.362664 0.000000
-0.733677 9.363979 0.000000
-1.351940 9.382239 0.000000
-2.046915 9.419094 0.000000
-2.807692 9.475451 0.000000
-3.634467 9.552227 0.000000
-4.533600 9.650350 0.000000
-5.499083 9.770935 0.000000
-6.530982 9.915189 0.000000
-7.635879 10.083066 0.000000
-8.810984 10.273527 0.000000
-10.060697 10.489068 0.000000
0.785441 10.400743 0.000000
0.417007 10.372825 0.000000
-0.032141 10.353282 0.000000
-0.553238 10.346406 0.000000
-1.141896 10.354574 0.000000
-1.804155 10.379883 0.000000
-2.533041 10.422666 0.000000
-3.321947 10.484772 0.000000
-4.178080 10.566202 0.000000
-5.100600 10.667072 0.000000
-6.084534 10.788543 0.000000
-7.133155 10.930920 0.000000
-8.249099 11.092736 0.000000
-9.432860 11.273461 0.000000
-10.692413 11.478167 0.000000
0.536382 11.380444 0.000000
0.112901 11.355396 0.000000
-0.383704 11.340087 0.000000
-0.946406 11.338164 0.000000
-1.577740 11.352895 0.000000
-2.275970 11.384305 0.000000
-3.032701 11.433668 0.000000
-3.849684 11.502393 0.000000
-4.729432 11.589208 0.000000
-5.669313 11.693754 0.000000
-6.668240 11.817040 0.000000
-7.726454 11.957261 0.000000
-8.847914 12.112732 0.000000
-10.038788 12.286054 0.000000
-11.305076 12.479944 0.000000
0.247770 12.367255 0.000000
-0.224213 12.344144 0.000000
-0.762574 12.332447 0.000000
-1.366380 12.336590 0.000000
-2.035515 12.357488 0.000000
-2.763171 12.395234 0.000000
-3.545864 12.452012 0.000000
-4.386150 12.526861 0.000000
-5.283711 12.618224 0.000000
-6.237335 12.725825 0.000000
-7.244435 12.848841 0.000000
-8.306653 12.984596 0.000000
-9.432810 13.133182 0.000000
-10.627966 13.298063 0.000000
-11.896481 13.479457 0.000000
-0.074157 13.356657 0.000000
-0.588407 13.336283 0.000000
-1.167958 13.329944 0.000000
-1.810283 13.340321 0.000000
-2.509712 13.367153 0.000000
-3.262713 13.411591 0.000000
-4.068541 13.474357 0.000000
-4.926396 13.553985 0.000000
-5.837119 13.648400 0.000000
-6.799113 13.756604 0.000000
-7.807900 13.876118 0.000000
-8.872414 14.005757 0.000000
-10.002259 14.146650 0.000000
-11.198005 14.300541 0.000000
-12.465020 14.468170 0.000000
-0.423648 14.342787 0.000000
-0.979510 14.326725 0.000000
-1.597498 14.326038 0.000000
-2.270530 14.341764 0.000000
-2.996318 14.374026 0.000000
-3.772031 14.424540 0.000000
-4.595658 14.492955 0.000000
-5.466879 14.576784 0.000000
-6.386325 14.673498 0.000000
-7.349522 14.780814 0.000000
-8.357323 14.896366 0.000000
-9.423567 15.020280 0.000000
-10.553094 15.152792 0.000000
-11.746393 15.294492 0.000000
-13.010477 15.448232 0.000000
-0.799583 15.321044 0.000000
-1.394478 15.309458 0.000000
-2.043843 15.313259 0.000000
-2.743590 15.333424 0.000000
-3.492636 15.371442 0.000000
-4.287655 15.428427 0.000000
-5.124851 15.502996 0.000000
-6.004747 15.591307 0.000000
-6.926764 15.689930 0.000000
-7.886719 15.796159 0.000000
-8.893823 15.908951 0.000000
-9.959202 16.027345 0.000000
-11.083717 16.150608 0.000000
-12.272683 16.280300 0.000000
-13.533327 16.420717 0.000000
-1.199403 16.288920 0.000000
-1.826680 16.280549 0.000000
-2.502422 16.287980 0.000000
-3.227145 16.312888 0.000000
-3.997334 16.357602 0.000000
-4.807371 16.422367 0.000000
-5.653760 16.503528 0.000000
-6.537309 16.596200 0.000000
-7.456033 16.696431 0.000000
-8.411489 16.802008 0.000000
-9.416532 16.912045 0.000000
-10.476557 17.023926 0.000000
-11.593321 17.137144 0.000000
-12.777082 17.254866 0.000000
-14.033687 17.381877 0.000000
-1.616433 17.243123 0.000000
-2.270187 17.237076 0.000000
-2.972135 17.248164 0.000000
-3.720275 17.279496 0.000000
-4.508669 17.333015 0.000000
-5.328883 17.406533 0.000000
-6.178746 17.494461 0.000000
-7.060249 17.590918 0.000000
-7.972798 17.692537 0.000000
-8.923476 17.797529 0.000000
-9.922178 17.903110 0.000000
-10.972772 18.006854 0.000000
-12.081534 18.109711 0.000000
-13.260154 18.215308 0.000000
-14.512189 18.328833 0.000000
-2.044385 18.179391 0.000000
-2.724898 18.175839 0.000000
-3.452763 18.192568 0.000000
-4.222430 18.233040 0.000000
-5.023628 18.297000 0.000000
-5.847927 18.379554 0.000000
-6.696374 18.473630 0.000000
-7.571401 18.573481 0.000000
-8.476271 18.676248 0.000000
-9.419860 18.779460 0.000000
-10.408324 18.879185 0.000000
-11.447945 18.974447 0.000000
-12.549203 19.067625 0.000000
-13.722590 19.161726 0.000000
-14.969521 19.262393 0.000000
-2.482970 19.095000 0.000000
-3.191690 19.095536 0.000000
-3.944448 19.120623 0.000000
-4.731521 19.172155 0.000000
-5.538542 19.246983 0.000000
-6.360752 19.338038 0.000000
-7.203231 19.437337 0.000000
-8.069746 19.540361 0.000000
-8.965456 19.643945 0.000000
-9.897930 19.744013 0.000000
-10.874409 19.837873 0.000000
-11.903829 19.926049 0.000000
-12.997669 20.010980 0.000000
-14.164879 20.094847 0.000000
-15.406570 20.183654 0.000000
-2.934034 19.989329 0.000000
-3.670900 19.996282 0.000000
-4.445808 20.031871 0.000000
-5.242462 20.095062 0.000000
-6.048086 20.180075 0.000000
-6.864400 20.278193 0.000000
-7.697876 20.382086 0.000000
-8.553947 20.487652 0.000000
-9.438010 20.590907 0.000000
-10.357018 20.687593 0.000000
-11.321764 20.776895 0.000000
-12.342106 20.860106 0.000000
-13.428091 20.938591 0.000000
-14.587842 21.013918 0.000000
-15.824883 21.092242 0.000000
-3.398162 20.862848 0.000000
-4.161540 20.878492 0.000000
-4.952058 20.925190 0.000000
-5.749771 20.999384 0.000000
-6.548563 21.092929 0.000000
-7.355816 21.196376 0.000000
-8.178899 21.303856 0.000000
-9.022570 21.410833 0.000000
-9.892533 21.512613 0.000000
-10.798765 21.606832 0.000000
-11.753221 21.693839 0.000000
-12.764574 21.774466 0.000000
-13.841916 21.848866 0.000000
-14.993296 21.918116 0.000000
-16.226657 21.988277 0.000000
-3.875327 21.715082 0.000000
-4.660654 21.740452 0.000000
-5.456594 21.798113 0.000000
-6.248034 21.881619 0.000000
-7.037467 21.981185 0.000000
-7.833838 22.088372 0.000000
-8.644777 22.197808 0.000000
-9.474377 22.304866 0.000000
-10.330210 22.405700 0.000000
-11.226074 22.499750 0.000000
-12.171530 22.587546 0.000000
-13.173408 22.668677 0.000000
-14.241151 22.742336 0.000000
-15.383632 22.809045 0.000000
-16.614126 22.874423 0.000000
-4.363325 22.543215 0.000000
-5.160999 22.578743 0.000000
-5.953358 22.646165 0.000000
-6.734338 22.736583 0.000000
-7.512213 22.840017 0.000000
-8.296781 22.949506 0.000000
-9.094134 23.059865 0.000000
-9.909397 23.167056 0.000000
-10.754161 23.269365 0.000000
-11.642068 23.366922 0.000000
-12.578825 23.459365 0.000000
-13.570855 23.545091 0.000000
-14.628448 23.622476 0.000000
-15.762072 23.691321 0.000000
-16.990091 23.756263 0.000000
-4.856690 23.342823 0.000000
-5.655372 23.388539 0.000000
-6.437490 23.463898 0.000000
-7.206096 23.558948 0.000000
-7.971360 23.664896 0.000000
-8.743284 23.775597 0.000000
-9.526998 23.887129 0.000000
-10.330300 23.997006 0.000000
-11.168087 24.104775 0.000000
-12.049769 24.210534 0.000000
-12.977812 24.312444 0.000000
-13.960093 24.408033 0.000000
-15.007559 24.494888 0.000000
-16.132480 24.571809 0.000000
-17.357595 24.641584 0.000000
-5.347284 24.109591 0.000000
-6.138100 24.164258 0.000000
-6.906695 24.245261 0.000000
-7.661437 24.343291 0.000000
-8.414199 24.450855 0.000000
-9.173876 24.563074 0.000000
-9.946175 24.678048 0.000000
-10.742480 24.795066 0.000000
-11.576637 24.913773 0.000000
-12.452738 25.033390 0.000000
-13.372605 25.150840 0.000000
-14.345723 25.262943 0.000000
-15.383091 25.366338 0.000000
-16.499027 25.458446 0.000000
-17.719765 25.539151 0.000000
-5.828260 24.839513 0.000000
-6.605467 24.900868 0.000000
-7.358991 24.985620 0.000000
-8.100141 25.085543 0.000000
-8.841801 25.194483 0.000000
-9.591637 25.310526 0.000000
-10.356932 25.433701 0.000000
-11.151417 25.563559 0.000000
-11.984184 25.699695 0.000000
-12.855005 25.839770 0.000000
-13.767642 25.979860 0.000000
-14.732279 26.116106 0.000000
-15.759271 26.243798 0.000000
-16.865145 26.358406 0.000000
-18.079449 26.456424 0.000000
CELL_DATA 1024
SCALARS P float 1
LOOKUP_TABLE default
0.472192
7.123351
15.865444
13.022737
-3.017208
-1.504055
2.830013
10.216724
20.038284
4.522565
1.119659
4.819800
-2.794792
7.237821
17.650518
13.335434
10.946650
-2.930712
-11.838534
-1.800142
5.595796
12.910416
13.425197
-8.359051
-17.900968
-14.321413
-20.813538
2.003986
16.087445
-11.789161
-47.087336
-18.651746
4.331203
8.470566
1.492022
-4.589086
-1.908900
13.096818
15.909196
12.966184
6.750088
4.055907
3.877615
4.299125
4.323699
13.244202
9.074319
2.538540
-2.942798
2.198106
-1.847654
4.718392
12.588965
7.531431
-4.213624
-13.354742
-16.592462
-16.213048
-9.626448
-20.045999
-3.556331
-12.783478
-2.280206
-0.680451
13.967550
4.412855
-2.644117
6.098840
14.581350
11.202903
6.919524
-1.015709
-0.130448
0.685732
1.429763
8.933770
11.847921
10.245994
1.349566
3.649534
-0.799473
-7.698087
-4.788513
-5.022380
3.232691
7.441915
1.633377
6.181438
-3.154893
-5.918764
-10.690258
-5.525036
-10.324865
-13.508322
-16.021973
-38.451608
5.313270
0.293370
4.106758
7.930685
8.130872
6.667734
2.739214
6.209369
5.618437
6.767289
7.398301
4.239018
4.810290
4.409198
6.708587
7.620423
-1.193562
-2.868516
-7.710620
-2.005242
5.717556
-0.364967
1.440661
-9.082247
-11.177577
-9.943762
-8.994275
-9.184103
-9.186583
-1.570417
-1.286904
-0.280574
5.506323
6.549613
9.618502
9.557083
8.802206
7.434979
9.739571
9.447955
4.433503
0.118802
0.626919
3.165971
8.812946
11.920526
11.681949
4.694028
-4.242207
-8.544744
-4.273343
0.494549
-2.442198
-3.039722
-6.450393
-3.160427
-3.880903
-2.849427
-8.484621
-8.974733
-5.943663
-6.987617
5.675442
-10.523958
11.146710
6.164724
6.135463
3.500133
10.247961
12.781556
9.827184
1.918561
-0.010323
-1.199467
4.349211
6.717089
10.364168
12.518789
4.501407
1.581164
-2.344467
2.459357
2.492931
-1.957915
-3.391177
-2.107259
-0.298069
-0.371664
-1.628985
-7.941015
-9.220665
-11.188044
-15.969610
-15.454933
-17.930492
-21.050007
8.022700
3.823378
1.715254
10.979901
10.019381
9.948604
2.614210
3.249853
0.557592
3.640194
1.733524
4.391626
7.482286
-0.182464
2.804752
2.728735
3.089144
3.881469
-1.423542
-1.023348
-0.336647
-0.975543
-3.271661
-4.254910
-8.189201
-6.062729
-6.944235
-8.332947
-8.491991
-1.409211
-7.371214
-6.520887
11.420040
8.634120
13.745229
13.668747
16.556796
12.931328
11.026060
11.663055
4.921086
2.681468
3.507402
2.484936
0.407298
6.573759
3.596912
1.592508
4.173063
-0.499434
2.198990
2.540657
-0.717429
-3.897569
-3.211621
-2.306672
-4.109873
-0.974044
-7.663974
-6.061665
-1.142204
-4.600589
-6.158889
-10.826565
11.001040
6.713632
6.089222
5.417971
6.609275
9.084232
10.362708
5.918941
7.369660
8.624682
6.951864
9.954307
9.508324
1.834219
-1.703254
-2.976006
-4.597721
-1.567034
-0.891374
-3.688520
-3.761279
1.316015
1.358245
2.088455
2.029683
-4.858119
-6.190029
-3.721325
-6.238082
-9.079932
-9.162238
-9.758169
11.871441
10.213134
6.357759
9.275302
10.498494
8.789631
6.119270
5.795080
5.044803
4.306672
8.834916
7.757786
2.061467
3.406004
1.070049
4.677723
3.562413
4.266399
-1.560772
-2.460887
0.127159
-4.910169
-2.135438
-5.637665
-8.124295
-12.062500
-6.868562
-9.773339
-11.072270
-7.364264
-7.592780
-12.189102
13.443305
10.856999
11.087393
12.975099
9.954738
10.309760
6.379969
5.397318
6.071257
10.193897
8.252341
6.017592
6.514238
6.298183
6.329468
6.483943
4.051002
-0.106350
-1.853469
-0.753100
-5.600304
-4.453618
-5.251386
-6.716755
-10.457596
-6.874755
-10.029916
-13.549321
-9.690258
-7.126235
-11.595877
-8.670980
10.645002
11.710309
12.828124
12.077297
11.684111
7.746310
6.934470
8.351267
9.862525
6.656981
6.035161
6.314158
4.514431
3.310799
5.180914
2.806432
1.555398
3.068212
2.797943
2.511593
0.420349
4.632034
-0.307809
0.989606
-1.318883
-0.835412
-8.489025
-2.893816
-3.302736
-7.054613
-9.336688
-7.729363
12.823763
12.259770
11.322734
8.637940
5.761814
5.399545
7.229598
7.116220
5.718302
7.189256
6.528003
3.037915
3.210533
3.775563
1.596474
0.263004
1.491100
1.755595
2.027800
0.463262
3.851289