# vtk DataFile Version 2.0
cantilever_Q4P1_mix
ASCII
DATASET POLYDATA
POINTS 25 float
1.000000 0.000000 0.000000
5.000000 0.000000 0.000000
5.000000 5.000000 0.000000
0.000000 5.000000 0.000000
0.000000 1.000000 0.000000
0.707107 0.707107 0.000000
1.380844 0.000000 0.000000
2.028278 0.000000 0.000000
3.128916 0.000000 0.000000
5.000000 2.000000 0.000000
2.000000 5.000000 0.000000
0.000000 3.128916 0.000000
0.000000 2.028278 0.000000
0.000000 1.380844 0.000000
0.382683 0.923880 0.000000
0.923880 0.382683 0.000000
0.993300 0.993300 0.000000
1.565685 1.565685 0.000000
2.710457 2.710457 0.000000
0.488716 1.262076 0.000000
0.702570 1.871969 0.000000
1.133322 2.978706 0.000000
1.262076 0.488716 0.000000
1.871969 0.702570 0.000000
2.978706 1.133322 0.000000
POLYGONS 32 128
3 4 14 13
3 13 14 19
3 13 19 12
3 12 19 20
3 12 20 11
3 11 20 21
3 11 21 3
3 3 21 10
3 14 5 19
3 19 5 16
3 19 16 20
3 20 16 17
3 20 17 21
3 21 17 18
3 21 18 10
3 10 18 2
3 5 15 22
3 22 16 5
3 16 22 23
3 23 17 16
3 17 23 24
3 24 18 17
3 18 24 9
3 9 2 18
3 15 0 6
3 6 22 15
3 22 6 7
3 7 23 22
3 23 7 8
3 8 24 23
3 24 8 1
3 1 9 24
POINT_DATA 25
VECTORS U float
0.002763 0.000017 0.000000
0.005001 -0.000015 0.000000
0.004639 -0.001879 0.000000
-0.000012 -0.002166 0.000000
-0.000284 -0.000811 0.000000
0.002061 -0.000684 0.000000
0.002874 0.000050 0.000000
0.003019 0.000002 0.000000
0.003631 -0.000002 0.000000
0.004947 -0.000685 0.000000
0.001806 -0.002119 0.000000
-0.000030 -0.001592 0.000000
-0.000032 -0.001307 0.000000
-0.000031 -0.001188 0.000000
0.001155 -0.000866 0.000000
0.002596 -0.000402 0.000000
0.001596 -0.000404 0.000000
0.001818 -0.000575 0.000000
0.002689 -0.001016 0.000000
0.000590 -0.000984 0.000000
0.000737 -0.001115 0.000000
0.001052 -0.001410 0.000000
0.002550 -0.000047 0.000000
0.002724 -0.000118 0.000000
0.003348 -0.000308 0.000000
CELL_DATA 32
SCALARS P float 1
LOOKUP_TABLE default
1.030735
1.072715
0.709134
0.721320
0.565599
0.562199
0.487396
0.472760
0.752943
0.602555
0.692025
0.480593
0.540948
0.430995
0.481572
0.423134
0.115107
0.208702
0.218035
0.379046
0.329860
0.429378
0.392413
0.447412
-0.229480
-0.153119
0.124381
0.138943
0.297500
0.303648
0.376497
0.389291
