# vtk DataFile Version 2.0
cantilever_Q4P1_mix
ASCII
DATASET POLYDATA
POINTS 297 float
0.000000 -6.000000 0.000000
48.000000 -6.000000 0.000000
48.000000 6.000000 0.000000
0.000000 6.000000 0.000000
3.000000 -6.000000 0.000000
6.000000 -6.000000 0.000000
9.000000 -6.000000 0.000000
12.000000 -6.000000 0.000000
15.000000 -6.000000 0.000000
18.000000 -6.000000 0.000000
21.000000 -6.000000 0.000000
24.000000 -6.000000 0.000000
27.000000 -6.000000 0.000000
30.000000 -6.000000 0.000000
33.000000 -6.000000 0.000000
36.000000 -6.000000 0.000000
39.000000 -6.000000 0.000000
42.000000 -6.000000 0.000000
45.000000 -6.000000 0.000000
1.500000 -6.000000 0.000000
4.500000 -6.000000 0.000000
7.500000 -6.000000 0.000000
10.500000 -6.000000 0.000000
13.500000 -6.000000 0.000000
16.500000 -6.000000 0.000000
19.500000 -6.000000 0.000000
22.500000 -6.000000 0.000000
25.500000 -6.000000 0.000000
28.500000 -6.000000 0.000000
31.500000 -6.000000 0.000000
34.500000 -6.000000 0.000000
37.500000 -6.000000 0.000000
40.500000 -6.000000 0.000000
43.500000 -6.000000 0.000000
46.500000 -6.000000 0.000000
48.000000 -3.000000 0.000000
48.000000 -0.000000 0.000000
48.000000 3.000000 0.000000
48.000000 -4.500000 0.000000
48.000000 -1.500000 0.000000
48.000000 1.500000 0.000000
48.000000 4.500000 0.000000
45.000000 6.000000 0.000000
42.000000 6.000000 0.000000
39.000000 6.000000 0.000000
36.000000 6.000000 0.000000
33.000000 6.000000 0.000000
30.000000 6.000000 0.000000
27.000000 6.000000 0.000000
24.000000 6.000000 0.000000
21.000000 6.000000 0.000000
18.000000 6.000000 0.000000
15.000000 6.000000 0.000000
12.000000 6.000000 0.000000
9.000000 6.000000 0.000000
6.000000 6.000000 0.000000
3.000000 6.000000 0.000000
46.500000 6.000000 0.000000
43.500000 6.000000 0.000000
40.500000 6.000000 0.000000
37.500000 6.000000 0.000000
34.500000 6.000000 0.000000
31.500000 6.000000 0.000000
28.500000 6.000000 0.000000
25.500000 6.000000 0.000000
22.500000 6.000000 0.000000
19.500000 6.000000 0.000000
16.500000 6.000000 0.000000
13.500000 6.000000 0.000000
10.500000 6.000000 0.000000
7.500000 6.000000 0.000000
4.500000 6.000000 0.000000
1.500000 6.000000 0.000000
0.000000 3.000000 0.000000
0.000000 0.000000 0.000000
0.000000 -3.000000 0.000000
0.000000 4.500000 0.000000
0.000000 1.500000 0.000000
0.000000 -1.500000 0.000000
0.000000 -4.500000 0.000000
3.000000 -3.000000 0.000000
3.000000 0.000000 0.000000
3.000000 3.000000 0.000000
6.000000 -3.000000 0.000000
6.000000 0.000000 0.000000
6.000000 3.000000 0.000000
9.000000 -3.000000 0.000000
9.000000 0.000000 0.000000
9.000000 3.000000 0.000000
12.000000 -3.000000 0.000000
12.000000 0.000000 0.000000
12.000000 3.000000 0.000000
15.000000 -3.000000 0.000000
15.000000 0.000000 0.000000
15.000000 3.000000 0.000000
18.000000 -3.000000 0.000000
18.000000 0.000000 0.000000
18.000000 3.000000 0.000000
21.000000 -3.000000 0.000000
21.000000 0.000000 0.000000
21.000000 3.000000 0.000000
24.000000 -3.000000 0.000000
24.000000 -0.000000 0.000000
24.000000 3.000000 0.000000
27.000000 -3.000000 0.000000
27.000000 -0.000000 0.000000
27.000000 3.000000 0.000000
30.000000 -3.000000 0.000000
30.000000 -0.000000 0.000000
30.000000 3.000000 0.000000
33.000000 -3.000000 0.000000
33.000000 -0.000000 0.000000
33.000000 3.000000 0.000000
36.000000 -3.000000 0.000000
36.000000 -0.000000 0.000000
36.000000 3.000000 0.000000
39.000000 -3.000000 0.000000
39.000000 -0.000000 0.000000
39.000000 3.000000 0.000000
42.000000 -3.000000 0.000000
42.000000 -0.000000 0.000000
42.000000 3.000000 0.000000
45.000000 -3.000000 0.000000
45.000000 -0.000000 0.000000
45.000000 3.000000 0.000000
1.500000 -4.500000 0.000000
3.000000 -4.500000 0.000000
1.500000 -3.000000 0.000000
1.500000 -1.500000 0.000000
3.000000 -1.500000 0.000000
1.500000 0.000000 0.000000
1.500000 1.500000 0.000000
3.000000 1.500000 0.000000
1.500000 3.000000 0.000000
1.500000 4.500000 0.000000
3.000000 4.500000 0.000000
4.500000 -4.500000 0.000000
6.000000 -4.500000 0.000000
4.500000 -3.000000 0.000000
4.500000 -1.500000 0.000000
6.000000 -1.500000 0.000000
4.500000 0.000000 0.000000
4.500000 1.500000 0.000000
6.000000 1.500000 0.000000
4.500000 3.000000 0.000000
4.500000 4.500000 0.000000
6.000000 4.500000 0.000000
7.500000 -4.500000 0.000000
9.000000 -4.500000 0.000000
7.500000 -3.000000 0.000000
7.500000 -1.500000 0.000000
9.000000 -1.500000 0.000000
7.500000 0.000000 0.000000
7.500000 1.500000 0.000000
9.000000 1.500000 0.000000
7.500000 3.000000 0.000000
7.500000 4.500000 0.000000
9.000000 4.500000 0.000000
10.500000 -4.500000 0.000000
12.000000 -4.500000 0.000000
10.500000 -3.000000 0.000000
10.500000 -1.500000 0.000000
12.000000 -1.500000 0.000000
10.500000 0.000000 0.000000
10.500000 1.500000 0.000000
12.000000 1.500000 0.000000
10.500000 3.000000 0.000000
10.500000 4.500000 0.000000
12.000000 4.500000 0.000000
13.500000 -4.500000 0.000000
15.000000 -4.500000 0.000000
13.500000 -3.000000 0.000000
13.500000 -1.500000 0.000000
15.000000 -1.500000 0.000000
13.500000 0.000000 0.000000
13.500000 1.500000 0.000000
15.000000 1.500000 0.000000
13.500000 3.000000 0.000000
13.500000 4.500000 0.000000
15.000000 4.500000 0.000000
16.500000 -4.500000 0.000000
18.000000 -4.500000 0.000000
16.500000 -3.000000 0.000000
16.500000 -1.500000 0.000000
18.000000 -1.500000 0.000000
16.500000 0.000000 0.000000
16.500000 1.500000 0.000000
18.000000 1.500000 0.000000
16.500000 3.000000 0.000000
16.500000 4.500000 0.000000
18.000000 4.500000 0.000000
19.500000 -4.500000 0.000000
21.000000 -4.500000 0.000000
19.500000 -3.000000 0.000000
19.500000 -1.500000 0.000000
21.000000 -1.500000 0.000000
19.500000 0.000000 0.000000
19.500000 1.500000 0.000000
21.000000 1.500000 0.000000
19.500000 3.000000 0.000000
19.500000 4.500000 0.000000
21.000000 4.500000 0.000000
22.500000 -4.500000 0.000000
24.000000 -4.500000 0.000000
22.500000 -3.000000 0.000000
22.500000 -1.500000 0.000000
24.000000 -1.500000 0.000000
22.500000 0.000000 0.000000
22.500000 1.500000 0.000000
24.000000 1.500000 0.000000
22.500000 3.000000 0.000000
22.500000 4.500000 0.000000
24.000000 4.500000 0.000000
25.500000 -4.500000 0.000000
27.000000 -4.500000 0.000000
25.500000 -3.000000 0.000000
25.500000 -1.500000 0.000000
27.000000 -1.500000 0.000000
25.500000 -0.000000 0.000000
25.500000 1.500000 0.000000
27.000000 1.500000 0.000000
25.500000 3.000000 0.000000
25.500000 4.500000 0.000000
27.000000 4.500000 0.000000
28.500000 -4.500000 0.000000
30.000000 -4.500000 0.000000
28.500000 -3.000000 0.000000
28.500000 -1.500000 0.000000
30.000000 -1.500000 0.000000
28.500000 -0.000000 0.000000
28.500000 1.500000 0.000000
30.000000 1.500000 0.000000
28.500000 3.000000 0.000000
28.500000 4.500000 0.000000
30.000000 4.500000 0.000000
31.500000 -4.500000 0.000000
33.000000 -4.500000 0.000000
31.500000 -3.000000 0.000000
31.500000 -1.500000 0.000000
33.000000 -1.500000 0.000000
31.500000 -0.000000 0.000000
31.500000 1.500000 0.000000
33.000000 1.500000 0.000000
31.500000 3.000000 0.000000
31.500000 4.500000 0.000000
33.000000 4.500000 0.000000
34.500000 -4.500000 0.000000
36.000000 -4.500000 0.000000
34.500000 -3.000000 0.000000
34.500000 -1.500000 0.000000
36.000000 -1.500000 0.000000
34.500000 -0.000000 0.000000
34.500000 1.500000 0.000000
36.000000 1.500000 0.000000
34.500000 3.000000 0.000000
34.500000 4.500000 0.000000
36.000000 4.500000 0.000000
37.500000 -4.500000 0.000000
39.000000 -4.500000 0.000000
37.500000 -3.000000 0.000000
37.500000 -1.500000 0.000000
39.000000 -1.500000 0.000000
37.500000 -0.000000 0.000000
37.500000 1.500000 0.000000
39.000000 1.500000 0.000000
37.500000 3.000000 0.000000
37.500000 4.500000 0.000000
39.000000 4.500000 0.000000
40.500000 -4.500000 0.000000
42.000000 -4.500000 0.000000
40.500000 -3.000000 0.000000
40.500000 -1.500000 0.000000
42.000000 -1.500000 0.000000
40.500000 -0.000000 0.000000
40.500000 1.500000 0.000000
42.000000 1.500000 0.000000
40.500000 3.000000 0.000000
40.500000 4.500000 0.000000
42.000000 4.500000 0.000000
43.500000 -4.500000 0.000000
45.000000 -4.500000 0.000000
43.500000 -3.000000 0.000000
43.500000 -1.500000 0.000000
45.000000 -1.500000 0.000000
43.500000 -0.000000 0.000000
43.500000 1.500000 0.000000
45.000000 1.500000 0.000000
43.500000 3.000000 0.000000
43.500000 4.500000 0.000000
45.000000 4.500000 0.000000
46.500000 -4.500000 0.000000
46.500000 -3.000000 0.000000
46.500000 -1.500000 0.000000
46.500000 -0.000000 0.000000
46.500000 1.500000 0.000000
46.500000 3.000000 0.000000
46.500000 4.500000 0.000000
POLYGONS 128 896
6 0 4 75 19 125 79
6 75 4 80 125 126 127
6 75 80 74 127 128 78
6 74 80 81 128 129 130
6 74 81 73 130 131 77
6 73 81 82 131 132 133
6 73 82 3 133 134 76
6 3 82 56 134 135 72
6 4 5 80 20 136 126
6 80 5 83 136 137 138
6 80 83 81 138 139 129
6 81 83 84 139 140 141
6 81 84 82 141 142 132
6 82 84 85 142 143 144
6 82 85 56 144 145 135
6 56 85 55 145 146 71
6 5 6 83 21 147 137
6 83 6 86 147 148 149
6 83 86 84 149 150 140
6 84 86 87 150 151 152
6 84 87 85 152 153 143
6 85 87 88 153 154 155
6 85 88 55 155 156 146
6 55 88 54 156 157 70
6 6 7 86 22 158 148
6 86 7 89 158 159 160
6 86 89 87 160 161 151
6 87 89 90 161 162 163
6 87 90 88 163 164 154
6 88 90 91 164 165 166
6 88 91 54 166 167 157
6 54 91 53 167 168 69
6 7 8 89 23 169 159
6 89 8 92 169 170 171
6 89 92 90 171 172 162
6 90 92 93 172 173 174
6 90 93 91 174 175 165
6 91 93 94 175 176 177
6 91 94 53 177 178 168
6 53 94 52 178 179 68
6 8 9 92 24 180 170
6 92 9 95 180 181 182
6 92 95 93 182 183 173
6 93 95 96 183 184 185
6 93 96 94 185 186 176
6 94 96 97 186 187 188
6 94 97 52 188 189 179
6 52 97 51 189 190 67
6 9 10 95 25 191 181
6 95 10 98 191 192 193
6 95 98 96 193 194 184
6 96 98 99 194 195 196
6 96 99 97 196 197 187
6 97 99 100 197 198 199
6 97 100 51 199 200 190
6 51 100 50 200 201 66
6 10 11 98 26 202 192
6 98 11 101 202 203 204
6 98 101 99 204 205 195
6 99 101 102 205 206 207
6 99 102 100 207 208 198
6 100 102 103 208 209 210
6 100 103 50 210 211 201
6 50 103 49 211 212 65
6 11 12 101 27 213 203
6 101 12 104 213 214 215
6 101 104 102 215 216 206
6 102 104 105 216 217 218
6 102 105 103 218 219 209
6 103 105 106 219 220 221
6 103 106 49 221 222 212
6 49 106 48 222 223 64
6 12 13 104 28 224 214
6 104 13 107 224 225 226
6 104 107 105 226 227 217
6 105 107 108 227 228 229
6 105 108 106 229 230 220
6 106 108 109 230 231 232
6 106 109 48 232 233 223
6 48 109 47 233 234 63
6 13 14 107 29 235 225
6 107 14 110 235 236 237
6 107 110 108 237 238 228
6 108 110 111 238 239 240
6 108 111 109 240 241 231
6 109 111 112 241 242 243
6 109 112 47 243 244 234
6 47 112 46 244 245 62
6 14 15 110 30 246 236
6 110 15 113 246 247 248
6 110 113 111 248 249 239
6 111 113 114 249 250 251
6 111 114 112 251 252 242
6 112 114 115 252 253 254
6 112 115 46 254 255 245
6 46 115 45 255 256 61
6 15 16 113 31 257 247
6 113 16 116 257 258 259
6 113 116 114 259 260 250
6 114 116 117 260 261 262
6 114 117 115 262 263 253
6 115 117 118 263 264 265
6 115 118 45 265 266 256
6 45 118 44 266 267 60
6 16 17 116 32 268 258
6 116 17 119 268 269 270
6 116 119 117 270 271 261
6 117 119 120 271 272 273
6 117 120 118 273 274 264
6 118 120 121 274 275 276
6 118 121 44 276 277 267
6 44 121 43 277 278 59
6 17 18 119 33 279 269
6 119 18 122 279 280 281
6 119 122 120 281 282 272
6 120 122 123 282 283 284
6 120 123 121 284 285 275
6 121 123 124 285 286 287
6 121 124 43 287 288 278
6 43 124 42 288 289 58
6 18 1 122 34 290 280
6 122 1 35 290 38 291
6 122 35 123 291 292 283
6 123 35 36 292 39 293
6 123 36 124 293 294 286
6 124 36 37 294 40 295
6 124 37 42 295 296 289
6 42 37 2 296 41 57
POINT_DATA 297
VECTORS U float
-0.000705 0.001807 0.000000
0.010563 0.069601 0.000000
-0.010465 0.066834 0.000000
0.000400 0.001165 0.000000
-0.000048 0.002318 0.000000
0.005415 0.001050 0.000000
0.004606 0.005807 0.000000
0.000637 0.012543 0.000000
0.009626 0.007039 0.000000
0.015105 0.006359 0.000000
0.001796 0.025271 0.000000
0.000346 0.032044 0.000000
0.018037 0.020116 0.000000
0.016575 0.027712 0.000000
0.002959 0.046236 0.000000
0.010661 0.044500 0.000000
0.017937 0.044957 0.000000
0.006307 0.062199 0.000000
0.003099 0.070324 0.000000
0.002456 0.001049 0.000000
0.001773 0.003636 0.000000
0.000587 0.006089 0.000000
0.007741 0.002689 0.000000
0.008019 0.007305 0.000000
-0.001110 0.021058 0.000000
0.005995 0.018184 0.000000
0.019823 0.009105 0.000000
0.009636 0.024775 0.000000
-0.000992 0.040624 0.000000
0.012836 0.033085 0.000000
0.017951 0.035118 0.000000
0.006010 0.052204 0.000000
0.010327 0.053395 0.000000
0.021533 0.050025 0.000000
0.017004 0.061184 0.000000
0.001114 0.073349 0.000000
0.000753 0.067360 0.000000
-0.000040 0.061371 0.000000
0.012697 0.065083 0.000000
0.006077 0.065260 0.000000
-0.007481 0.074099 0.000000
-0.013226 0.073539 0.000000
-0.004521 0.054699 0.000000
-0.010483 0.053472 0.000000
-0.018718 0.055826 0.000000
-0.011694 0.044751 0.000000
-0.005895 0.033787 0.000000
-0.013334 0.036040 0.000000
-0.012917 0.031557 0.000000
-0.001360 0.015329 0.000000
-0.005528 0.014968 0.000000
-0.017667 0.024499 0.000000
-0.008597 0.013834 0.000000
0.003742 -0.000834 0.000000
-0.003681 0.003717 0.000000
-0.008912 0.008070 0.000000
-0.002393 0.002821 0.000000
-0.016940 0.070458 0.000000
-0.018171 0.066172 0.000000
-0.007412 0.050578 0.000000
-0.006099 0.042513 0.000000
-0.015103 0.045071 0.000000
-0.012321 0.037560 0.000000
-0.004598 0.024761 0.000000
-0.011893 0.027504 0.000000
-0.016667 0.029301 0.000000
-0.002566 0.011948 0.000000
0.002241 0.003193 0.000000
-0.011289 0.013885 0.000000
-0.011204 0.013241 0.000000
0.001325 0.000913 0.000000
0.001733 -0.000559 0.000000
-0.001295 0.002137 0.000000
0.002674 -0.001459 0.000000
0.001353 -0.000737 0.000000
-0.001910 0.001590 0.000000
-0.001383 0.001910 0.000000
-0.002652 0.001815 0.000000
0.000548 -0.000538 0.000000
0.001611 -0.000232 0.000000
-0.002803 0.002107 0.000000
0.001324 -0.000438 0.000000
-0.000134 0.001414 0.000000
0.009940 -0.004095 0.000000
-0.009730 0.010713 0.000000
-0.025082 0.021862 0.000000
-0.000922 0.012214 0.000000
-0.009960 0.014909 0.000000
-0.006497 0.004985 0.000000
-0.013642 0.024180 0.000000
0.015109 -0.005044 0.000000
0.035346 -0.027556 0.000000
0.023912 -0.011024 0.000000
0.020895 -0.008524 0.000000
-0.002858 0.013663 0.000000
0.029457 -0.010052 0.000000
-0.016447 0.030836 0.000000
-0.048984 0.057470 0.000000
-0.031802 0.055418 0.000000
-0.029405 0.047857 0.000000
-0.002275 0.014590 0.000000
-0.024278 0.053311 0.000000
0.008987 0.016683 0.000000
0.030501 -0.010103 0.000000
0.044310 -0.006547 0.000000
0.025160 0.008174 0.000000
-0.011305 0.036243 0.000000
0.024765 0.016847 0.000000
0.001500 0.035079 0.000000
-0.017627 0.046031 0.000000
-0.025630 0.068875 0.000000
-0.006536 0.046572 0.000000
0.013862 0.020991 0.000000
0.005655 0.045985 0.000000
-0.001260 0.047921 0.000000
-0.008046 0.047494 0.000000
0.024384 0.034066 0.000000
-0.010829 0.059248 0.000000
-0.035978 0.076130 0.000000
-0.020213 0.079494 0.000000
-0.015522 0.063797 0.000000
-0.002590 0.046303 0.000000
-0.027704 0.093454 0.000000
-0.004316 0.061234 0.000000
0.021595 0.030308 0.000000
-0.003604 0.003433 0.000000
0.004374 -0.000185 0.000000
0.004771 -0.001871 0.000000
-0.001498 0.001365 0.000000
0.001567 0.000313 0.000000
-0.002718 0.002193 0.000000
0.005406 -0.003455 0.000000
-0.002348 0.001627 0.000000
-0.005382 0.004111 0.000000
0.002068 -0.000652 0.000000
0.000109 -0.000121 0.000000
0.003209 0.000102 0.000000
-0.005198 0.007829 0.000000
-0.001519 0.004925 0.000000
0.001519 0.000137 0.000000
-0.001772 0.002844 0.000000
0.003469 -0.001591 0.000000
-0.009470 0.009325 0.000000
0.020227 -0.015491 0.000000
0.010842 -0.008894 0.000000
-0.011120 0.010554 0.000000
0.014754 -0.011175 0.000000
0.009688 0.000052 0.000000
0.003011 0.000970 0.000000
-0.005415 0.005988 0.000000
-0.000165 0.007151 0.000000
0.008234 -0.007594 0.000000
0.013590 -0.009874 0.000000
-0.023726 0.021724 0.000000
0.007758 -0.002453 0.000000
0.021278 -0.014186 0.000000
-0.017056 0.014490 0.000000
-0.002323 0.006713 0.000000
-0.006517 0.018147 0.000000
0.017053 -0.006846 0.000000
0.017165 -0.012535 0.000000
-0.010425 0.020571 0.000000
0.007077 -0.001741 0.000000
-0.000809 0.003693 0.000000
0.014033 -0.008643 0.000000
-0.035077 0.036267 0.000000
-0.024171 0.027585 0.000000
0.013750 -0.011563 0.000000
-0.029847 0.031155 0.000000
-0.000534 0.013551 0.000000
-0.006842 0.021909 0.000000
0.004733 0.006972 0.000000
0.010786 0.000253 0.000000
-0.023558 0.033777 0.000000
-0.024172 0.028916 0.000000
0.031572 -0.019449 0.000000
-0.011907 0.016399 0.000000
-0.032738 0.033224 0.000000
0.013484 -0.005624 0.000000
-0.000794 0.003684 0.000000
0.028865 -0.011241 0.000000
-0.015706 0.034148 0.000000
-0.031247 0.045550 0.000000
0.029555 -0.014559 0.000000
-0.009738 0.022675 0.000000
-0.004725 0.014773 0.000000
-0.022370 0.033628 0.000000
0.038726 -0.026151 0.000000
0.028783 -0.021249 0.000000
-0.029771 0.037889 0.000000
0.025118 -0.015523 0.000000
0.007828 0.015127 0.000000
0.027383 -0.004560 0.000000
0.007899 0.009647 0.000000
-0.015469 0.035044 0.000000
0.041648 -0.023953 0.000000
0.031061 -0.015779 0.000000
-0.038505 0.050605 0.000000
0.009918 0.006211 0.000000
0.026822 -0.012228 0.000000
-0.023025 0.031227 0.000000
-0.011798 0.025623 0.000000
-0.026588 0.054700 0.000000
0.029848 -0.002387 0.000000
0.051876 -0.028641 0.000000
-0.038251 0.062066 0.000000
0.018326 0.002893 0.000000
0.013182 0.005220 0.000000
0.013999 0.005177 0.000000
-0.032477 0.049358 0.000000
-0.033610 0.048920 0.000000
0.016415 -0.002837 0.000000
-0.030085 0.045023 0.000000
0.008805 0.025717 0.000000
-0.018005 0.049609 0.000000
-0.003938 0.029566 0.000000
0.019713 0.012530 0.000000
-0.037232 0.059901 0.000000
-0.023879 0.043502 0.000000
0.021588 0.004955 0.000000
-0.008230 0.029020 0.000000
-0.022380 0.039694 0.000000
0.002328 0.017532 0.000000
0.000567 0.018485 0.000000
0.038021 0.002691 0.000000
-0.007913 0.046046 0.000000
-0.038294 0.067719 0.000000
0.039129 -0.000297 0.000000
-0.011145 0.041493 0.000000
-0.014528 0.038937 0.000000
-0.011135 0.041706 0.000000
0.006640 0.020832 0.000000
0.014386 0.009383 0.000000
-0.022624 0.045728 0.000000
0.001104 0.024223 0.000000
-0.000294 0.044377 0.000000
0.030370 0.016417 0.000000
0.018601 0.021075 0.000000
-0.010672 0.050238 0.000000
0.027570 0.012342 0.000000
0.006847 0.026352 0.000000
-0.001410 0.036061 0.000000
-0.014433 0.047345 0.000000
-0.010829 0.039909 0.000000
-0.002973 0.030768 0.000000
-0.022405 0.051630 0.000000
-0.009975 0.058674 0.000000
0.008998 0.043021 0.000000
0.029257 0.017318 0.000000
-0.015194 0.059977 0.000000
0.002874 0.040915 0.000000
0.003257 0.035617 0.000000
0.007842 0.032845 0.000000
-0.000300 0.039590 0.000000
-0.021254 0.054799 0.000000
0.003470 0.031066 0.000000
-0.006973 0.041750 0.000000
0.023230 0.033922 0.000000
-0.007117 0.063639 0.000000
-0.013582 0.062849 0.000000
0.014421 0.038163 0.000000
-0.005410 0.057164 0.000000
0.004616 0.040760 0.000000
-0.021848 0.065487 0.000000
0.024046 0.026561 0.000000
0.017166 0.025460 0.000000
-0.024051 0.061765 0.000000
0.011882 0.032443 0.000000
0.010031 0.052742 0.000000
0.026030 0.039470 0.000000
0.007408 0.051386 0.000000
-0.005340 0.058373 0.000000
0.028254 0.036132 0.000000
0.015675 0.042535 0.000000
-0.023096 0.066756 0.000000
0.000819 0.060192 0.000000
0.013211 0.039871 0.000000
-0.020857 0.061191 0.000000
-0.012731 0.064020 0.000000
-0.018723 0.084980 0.000000
0.033498 0.039392 0.000000
0.044617 0.023998 0.000000
-0.029409 0.085699 0.000000
0.028986 0.039823 0.000000
0.010712 0.056004 0.000000
0.009153 0.039700 0.000000
-0.020985 0.085866 0.000000
-0.028390 0.087318 0.000000
0.008873 0.038574 0.000000
-0.029788 0.085179 0.000000
-0.004625 0.077968 0.000000
0.023850 0.048090 0.000000
-0.009765 0.077296 0.000000
-0.000494 0.067830 0.000000
0.010745 0.048872 0.000000
-0.024717 0.086874 0.000000
0.004999 0.050196 0.000000
CELL_DATA 128
SCALARS P float 1
LOOKUP_TABLE default
11.355147
-17.501677
-164.248425
57.299807
-14.779006
-152.388529
1.516344
-5.991370
-165.102379
8.372216
-4.874677
-158.434873
0.163793
5.926454
-167.992127
-22.451291
7.838135
-158.066251
0.625858
16.502382
-167.397939
-62.730973
18.158217
-154.882191
81.413627
-23.214776
-155.092264
64.231357
-16.892086
-153.818551
1.718981
5.217158
-143.043957
11.061204
-2.618735
-146.072918
-86.035109
21.221938
-145.390560
-145.081574
18.615520
-127.869315
-31.368820
11.468171
-155.715597
-146.982846
20.367317
-141.192524
147.444817
-18.295516
-138.827702
81.266606
-9.162365
-135.952645
26.497789
0.759982
-129.046475
-123.471530
17.159588
-118.899460
-97.215785
13.943594
-136.591357
-181.501582
17.088607
-120.832650
-136.937316
19.116812
-140.166737
-228.703892
22.245903
-129.849921
213.162594
-20.740530
-131.034516
75.309058
-5.009671
-122.592498
95.844574
-8.942921
-132.203675
-239.650059
23.449581
-101.607308
-89.751009
9.449663
-130.404976
-343.462634
25.316303
-99.392573
-164.479639
15.848488
-130.471731
-160.915678
14.926348
-129.603077
273.999092
-21.916014
-123.749001
182.474146
-12.784761
-116.561760
-45.533685
5.579459
-112.818413
-255.528483
18.712163
-99.693382
-126.150785
10.690324
-123.777094
-462.378332
27.875358
-86.511245
-184.318160
11.709020
-114.053951
-269.236180
18.308890
-115.910318
309.871708
-19.723400
-112.350674
248.312373
-13.899451
-104.265393
-130.207585
11.067396
