# vtk DataFile Version 2.0
cantilever_tri3_mix
ASCII
DATASET POLYDATA
POINTS 45 float
0.000000 0.000000 0.000000
48.000000 44.000000 0.000000
48.000000 60.000000 0.000000
0.000000 44.000000 0.000000
7.072997 6.483581 0.000000
13.809185 12.658420 0.000000
20.224602 18.539218 0.000000
26.334523 24.139979 0.000000
32.153495 29.474037 0.000000
37.695374 34.554092 0.000000
42.973353 39.392240 0.000000
48.000000 48.000000 0.000000
48.000000 52.000000 0.000000
48.000000 56.000000 0.000000
42.973353 58.324451 0.000000
37.695374 56.565125 0.000000
32.153495 54.717832 0.000000
26.334523 52.778174 0.000000
20.224602 50.741534 0.000000
13.809185 48.603062 0.000000
7.072997 46.357666 0.000000
0.000000 33.000000 0.000000
0.000000 22.000000 0.000000
0.000000 11.000000 0.000000
7.072997 16.452102 0.000000
7.072997 26.420623 0.000000
7.072997 36.389144 0.000000
13.809185 21.644580 0.000000
13.809185 30.630741 0.000000
13.809185 39.616901 0.000000
20.224602 26.589797 0.000000
20.224602 34.640376 0.000000
20.224602 42.690955 0.000000
26.334523 31.299528 0.000000
26.334523 38.459077 0.000000
26.334523 45.618626 0.000000
32.153495 35.784986 0.000000
32.153495 42.095934 0.000000
32.153495 48.406883 0.000000
37.695374 40.056850 0.000000
37.695374 45.559608 0.000000
37.695374 51.062366 0.000000
42.973353 44.125293 0.000000
42.973353 48.858346 0.000000
42.973353 53.591398 0.000000
POLYGONS 64 256
3 0 4 23
3 23 4 24
3 23 24 22
3 22 24 25
3 22 25 21
3 21 25 26
3 21 26 3
3 3 26 20
3 4 5 24
3 24 5 27
3 24 27 25
3 25 27 28
3 25 28 26
3 26 28 29
3 26 29 20
3 20 29 19
3 5 6 27
3 27 6 30
3 27 30 28
3 28 30 31
3 28 31 29
3 29 31 32
3 29 32 19
3 19 32 18
3 6 7 30
3 30 7 33
3 30 33 31
3 31 33 34
3 31 34 32
3 32 34 35
3 32 35 18
3 18 35 17
3 7 8 33
3 33 8 36
3 33 36 34
3 34 36 37
3 34 37 35
3 35 37 38
3 35 38 17
3 17 38 16
3 8 9 36
3 36 9 39
3 36 39 37
3 37 39 40
3 37 40 38
3 38 40 41
3 38 41 16
3 16 41 15
3 9 10 39
3 39 10 42
3 39 42 40
3 40 42 43
3 40 43 41
3 41 43 44
3 41 44 15
3 15 44 14
3 10 1 42
3 42 1 11
3 42 11 43
3 43 11 12
3 43 12 44
3 44 12 13
3 44 13 14
3 14 13 2
POINT_DATA 45
VECTORS U float
0.028228 0.037078 0.000000
-5.421772 25.211917 0.000000
-19.489282 27.161874 0.000000
-0.054017 0.818311 0.000000
0.024242 1.524991 0.000000
0.419632 2.882648 0.000000
1.081838 4.552338 0.000000
1.306831 7.141951 0.000000
1.033304 10.698877 0.000000
-0.064215 15.055076 0.000000
-2.321744 20.013038 0.000000
-8.362181 25.596368 0.000000
-11.500908 26.111366 0.000000
-14.975040 26.617350 0.000000
-17.001000 21.149162 0.000000
-14.724012 16.269268 0.000000
-12.197949 12.003688 0.000000
-9.639286 8.380943 0.000000
-7.248653 5.452347 0.000000
-4.886804 3.295738 0.000000
-2.356323 1.802509 0.000000
0.017963 -0.147625 0.000000
-0.022027 -0.063187 0.000000
0.014491 -0.023194 0.000000
0.243863 1.259413 0.000000
0.333680 0.587464 0.000000
-0.278011 0.350796 0.000000
0.803131 2.358510 0.000000
0.434747 1.903235 0.000000
-1.318046 2.036312 0.000000
1.006480 4.228996 0.000000
-0.179544 4.084009 0.000000
-2.972957 4.407880 0.000000
0.566070 6.972544 0.000000
-1.482021 7.017642 0.000000
-5.038409 7.479592 0.000000
-0.584257 10.563668 0.000000
-3.496985 10.775899 0.000000
-7.304038 11.230105 0.000000
-2.642000 15.046387 0.000000
-5.845666 15.298033 0.000000
-9.773556 15.723436 0.000000
-5.226706 20.114607 0.000000
-8.516386 20.446080 0.000000
-12.342554 20.844342 0.000000
CELL_DATA 64
SCALARS P float 1
LOOKUP_TABLE default
6.510362
-1.552739
13.162704
20.431688
0.066503
-1.074167
-18.497403
-3.219751
-16.683303
150.179286
-101.182639
-3.290906
68.405051
-42.628184
-16.012261
-18.446184
-73.438077
84.320407
-20.069353
-80.641299
87.167434
-68.046495
5.888044
2.948144
10.380867
35.049009
25.712848
-73.011365
112.135177
-42.417486
-10.158438
-25.489833
-23.765042
86.794960
-33.554024
38.930097
39.907528
-54.109350
8.591048
13.654226
-22.227643
89.909141
-92.640709
9.394447
46.088861
37.860602
-41.051625
-0.364232
-11.959240
40.479769
-38.703379
129.237402
-79.424463
26.472675
12.596322
-31.991995
-0.086136
28.578155
-102.011406
64.794428
-12.571097
-30.211404
41.540479
-5.201737
