# vtk DataFile Version 2.0
cantilever_Q4P1_mix
ASCII
DATASET POLYDATA
POINTS 1105 float
0.000000 -6.000000 0.000000
48.000000 -6.000000 0.000000
48.000000 6.000000 0.000000
0.000000 6.000000 0.000000
1.500000 -6.000000 0.000000
3.000000 -6.000000 0.000000
4.500000 -6.000000 0.000000
6.000000 -6.000000 0.000000
7.500000 -6.000000 0.000000
9.000000 -6.000000 0.000000
10.500000 -6.000000 0.000000
12.000000 -6.000000 0.000000
13.500000 -6.000000 0.000000
15.000000 -6.000000 0.000000
16.500000 -6.000000 0.000000
18.000000 -6.000000 0.000000
19.500000 -6.000000 0.000000
21.000000 -6.000000 0.000000
22.500000 -6.000000 0.000000
24.000000 -6.000000 0.000000
25.500000 -6.000000 0.000000
27.000000 -6.000000 0.000000
28.500000 -6.000000 0.000000
30.000000 -6.000000 0.000000
31.500000 -6.000000 0.000000
33.000000 -6.000000 0.000000
34.500000 -6.000000 0.000000
36.000000 -6.000000 0.000000
37.500000 -6.000000 0.000000
39.000000 -6.000000 0.000000
40.500000 -6.000000 0.000000
42.000000 -6.000000 0.000000
43.500000 -6.000000 0.000000
45.000000 -6.000000 0.000000
46.500000 -6.000000 0.000000
0.750000 -6.000000 0.000000
2.250000 -6.000000 0.000000
3.750000 -6.000000 0.000000
5.250000 -6.000000 0.000000
6.750000 -6.000000 0.000000
8.250000 -6.000000 0.000000
9.750000 -6.000000 0.000000
11.250000 -6.000000 0.000000
12.750000 -6.000000 0.000000
14.250000 -6.000000 0.000000
15.750000 -6.000000 0.000000
17.250000 -6.000000 0.000000
18.750000 -6.000000 0.000000
20.250000 -6.000000 0.000000
21.750000 -6.000000 0.000000
23.250000 -6.000000 0.000000
24.750000 -6.000000 0.000000
26.250000 -6.000000 0.000000
27.750000 -6.000000 0.000000
29.250000 -6.000000 0.000000
30.750000 -6.000000 0.000000
32.250000 -6.000000 0.000000
33.750000 -6.000000 0.000000
35.250000 -6.000000 0.000000
36.750000 -6.000000 0.000000
38.250000 -6.000000 0.000000
39.750000 -6.000000 0.000000
41.250000 -6.000000 0.000000
42.750000 -6.000000 0.000000
44.250000 -6.000000 0.000000
45.750000 -6.000000 0.000000
47.250000 -6.000000 0.000000
48.000000 -4.500000 0.000000
48.000000 -3.000000 0.000000
48.000000 -1.500000 0.000000
48.000000 -0.000000 0.000000
48.000000 1.500000 0.000000
48.000000 3.000000 0.000000
48.000000 4.500000 0.000000
48.000000 -5.250000 0.000000
48.000000 -3.750000 0.000000
48.000000 -2.250000 0.000000
48.000000 -0.750000 0.000000
48.000000 0.750000 0.000000
48.000000 2.250000 0.000000
48.000000 3.750000 0.000000
48.000000 5.250000 0.000000
46.500000 6.000000 0.000000
45.000000 6.000000 0.000000
43.500000 6.000000 0.000000
42.000000 6.000000 0.000000
40.500000 6.000000 0.000000
39.000000 6.000000 0.000000
37.500000 6.000000 0.000000
36.000000 6.000000 0.000000
34.500000 6.000000 0.000000
33.000000 6.000000 0.000000
31.500000 6.000000 0.000000
30.000000 6.000000 0.000000
28.500000 6.000000 0.000000
27.000000 6.000000 0.000000
25.500000 6.000000 0.000000
24.000000 6.000000 0.000000
22.500000 6.000000 0.000000
21.000000 6.000000 0.000000
19.500000 6.000000 0.000000
18.000000 6.000000 0.000000
16.500000 6.000000 0.000000
15.000000 6.000000 0.000000
13.500000 6.000000 0.000000
12.000000 6.000000 0.000000
10.500000 6.000000 0.000000
9.000000 6.000000 0.000000
7.500000 6.000000 0.000000
6.000000 6.000000 0.000000
4.500000 6.000000 0.000000
3.000000 6.000000 0.000000
1.500000 6.000000 0.000000
47.250000 6.000000 0.000000
45.750000 6.000000 0.000000
44.250000 6.000000 0.000000
42.750000 6.000000 0.000000
41.250000 6.000000 0.000000
39.750000 6.000000 0.000000
38.250000 6.000000 0.000000
36.750000 6.000000 0.000000
35.250000 6.000000 0.000000
33.750000 6.000000 0.000000
32.250000 6.000000 0.000000
30.750000 6.000000 0.000000
29.250000 6.000000 0.000000
27.750000 6.000000 0.000000
26.250000 6.000000 0.000000
24.750000 6.000000 0.000000
23.250000 6.000000 0.000000
21.750000 6.000000 0.000000
20.250000 6.000000 0.000000
18.750000 6.000000 0.000000
17.250000 6.000000 0.000000
15.750000 6.000000 0.000000
14.250000 6.000000 0.000000
12.750000 6.000000 0.000000
11.250000 6.000000 0.000000
9.750000 6.000000 0.000000
8.250000 6.000000 0.000000
6.750000 6.000000 0.000000
5.250000 6.000000 0.000000
3.750000 6.000000 0.000000
2.250000 6.000000 0.000000
0.750000 6.000000 0.000000
0.000000 4.500000 0.000000
0.000000 3.000000 0.000000
0.000000 1.500000 0.000000
0.000000 0.000000 0.000000
0.000000 -1.500000 0.000000
0.000000 -3.000000 0.000000
0.000000 -4.500000 0.000000
0.000000 5.250000 0.000000
0.000000 3.750000 0.000000
0.000000 2.250000 0.000000
0.000000 0.750000 0.000000
0.000000 -0.750000 0.000000
0.000000 -2.250000 0.000000
0.000000 -3.750000 0.000000
0.000000 -5.250000 0.000000
1.500000 -4.500000 0.000000
1.500000 -3.000000 0.000000
1.500000 -1.500000 0.000000
1.500000 0.000000 0.000000
1.500000 1.500000 0.000000
1.500000 3.000000 0.000000
1.500000 4.500000 0.000000
3.000000 -4.500000 0.000000
3.000000 -3.000000 0.000000
3.000000 -1.500000 0.000000
3.000000 0.000000 0.000000
3.000000 1.500000 0.000000
3.000000 3.000000 0.000000
3.000000 4.500000 0.000000
4.500000 -4.500000 0.000000
4.500000 -3.000000 0.000000
4.500000 -1.500000 0.000000
4.500000 0.000000 0.000000
4.500000 1.500000 0.000000
4.500000 3.000000 0.000000
4.500000 4.500000 0.000000
6.000000 -4.500000 0.000000
6.000000 -3.000000 0.000000
6.000000 -1.500000 0.000000
6.000000 0.000000 0.000000
6.000000 1.500000 0.000000
6.000000 3.000000 0.000000
6.000000 4.500000 0.000000
7.500000 -4.500000 0.000000
7.500000 -3.000000 0.000000
7.500000 -1.500000 0.000000
7.500000 0.000000 0.000000
7.500000 1.500000 0.000000
7.500000 3.000000 0.000000
7.500000 4.500000 0.000000
9.000000 -4.500000 0.000000
9.000000 -3.000000 0.000000
9.000000 -1.500000 0.000000
9.000000 0.000000 0.000000
9.000000 1.500000 0.000000
9.000000 3.000000 0.000000
9.000000 4.500000 0.000000
10.500000 -4.500000 0.000000
10.500000 -3.000000 0.000000
10.500000 -1.500000 0.000000
10.500000 0.000000 0.000000
10.500000 1.500000 0.000000
10.500000 3.000000 0.000000
10.500000 4.500000 0.000000
12.000000 -4.500000 0.000000
12.000000 -3.000000 0.000000
12.000000 -1.500000 0.000000
12.000000 0.000000 0.000000
12.000000 1.500000 0.000000
12.000000 3.000000 0.000000
12.000000 4.500000 0.000000
13.500000 -4.500000 0.000000
13.500000 -3.000000 0.000000
13.500000 -1.500000 0.000000
13.500000 0.000000 0.000000
13.500000 1.500000 0.000000
13.500000 3.000000 0.000000
13.500000 4.500000 0.000000
15.000000 -4.500000 0.000000
15.000000 -3.000000 0.000000
15.000000 -1.500000 0.000000
15.000000 0.000000 0.000000
15.000000 1.500000 0.000000
15.000000 3.000000 0.000000
15.000000 4.500000 0.000000
16.500000 -4.500000 0.000000
16.500000 -3.000000 0.000000
16.500000 -1.500000 0.000000
16.500000 0.000000 0.000000
16.500000 1.500000 0.000000
16.500000 3.000000 0.000000
16.500000 4.500000 0.000000
18.000000 -4.500000 0.000000
18.000000 -3.000000 0.000000
18.000000 -1.500000 0.000000
18.000000 0.000000 0.000000
18.000000 1.500000 0.000000
18.000000 3.000000 0.000000
18.000000 4.500000 0.000000
19.500000 -4.500000 0.000000
19.500000 -3.000000 0.000000
19.500000 -1.500000 0.000000
19.500000 0.000000 0.000000
19.500000 1.500000 0.000000
19.500000 3.000000 0.000000
19.500000 4.500000 0.000000
21.000000 -4.500000 0.000000
21.000000 -3.000000 0.000000
21.000000 -1.500000 0.000000
21.000000 0.000000 0.000000
21.000000 1.500000 0.000000
21.000000 3.000000 0.000000
21.000000 4.500000 0.000000
22.500000 -4.500000 0.000000
22.500000 -3.000000 0.000000
22.500000 -1.500000 0.000000
22.500000 0.000000 0.000000
22.500000 1.500000 0.000000
22.500000 3.000000 0.000000
22.500000 4.500000 0.000000
24.000000 -4.500000 0.000000
24.000000 -3.000000 0.000000
24.000000 -1.500000 0.000000
24.000000 0.000000 0.000000
24.000000 1.500000 0.000000
24.000000 3.000000 0.000000
24.000000 4.500000 0.000000
25.500000 -4.500000 0.000000
25.500000 -3.000000 0.000000
25.500000 -1.500000 0.000000
25.500000 -0.000000 0.000000
25.500000 1.500000 0.000000
25.500000 3.000000 0.000000
25.500000 4.500000 0.000000
27.000000 -4.500000 0.000000
27.000000 -3.000000 0.000000
27.000000 -1.500000 0.000000
27.000000 -0.000000 0.000000
27.000000 1.500000 0.000000
27.000000 3.000000 0.000000
27.000000 4.500000 0.000000
28.500000 -4.500000 0.000000
28.500000 -3.000000 0.000000
28.500000 -1.500000 0.000000
28.500000 -0.000000 0.000000
28.500000 1.500000 0.000000
28.500000 3.000000 0.000000
28.500000 4.500000 0.000000
30.000000 -4.500000 0.000000
30.000000 -3.000000 0.000000
30.000000 -1.500000 0.000000
30.000000 -0.000000 0.000000
30.000000 1.500000 0.000000
30.000000 3.000000 0.000000
30.000000 4.500000 0.000000
31.500000 -4.500000 0.000000
31.500000 -3.000000 0.000000
31.500000 -1.500000 0.000000
31.500000 -0.000000 0.000000
31.500000 1.500000 0.000000
31.500000 3.000000 0.000000
31.500000 4.500000 0.000000
33.000000 -4.500000 0.000000
33.000000 -3.000000 0.000000
33.000000 -1.500000 0.000000
33.000000 -0.000000 0.000000
33.000000 1.500000 0.000000
33.000000 3.000000 0.000000
33.000000 4.500000 0.000000
34.500000 -4.500000 0.000000
34.500000 -3.000000 0.000000
34.500000 -1.500000 0.000000
34.500000 -0.000000 0.000000
34.500000 1.500000 0.000000
34.500000 3.000000 0.000000
34.500000 4.500000 0.000000
36.000000 -4.500000 0.000000
36.000000 -3.000000 0.000000
36.000000 -1.500000 0.000000
36.000000 -0.000000 0.000000
36.000000 1.500000 0.000000
36.000000 3.000000 0.000000
36.000000 4.500000 0.000000
37.500000 -4.500000 0.000000
37.500000 -3.000000 0.000000
37.500000 -1.500000 0.000000
37.500000 -0.000000 0.000000
37.500000 1.500000 0.000000
37.500000 3.000000 0.000000
37.500000 4.500000 0.000000
39.000000 -4.500000 0.000000
39.000000 -3.000000 0.000000
39.000000 -1.500000 0.000000
39.000000 -0.000000 0.000000
39.000000 1.500000 0.000000
39.000000 3.000000 0.000000
39.000000 4.500000 0.000000
40.500000 -4.500000 0.000000
40.500000 -3.000000 0.000000
40.500000 -1.500000 0.000000
40.500000 -0.000000 0.000000
40.500000 1.500000 0.000000
40.500000 3.000000 0.000000
40.500000 4.500000 0.000000
42.000000 -4.500000 0.000000
[...]
POINT_DATA 1105
VECTORS U float
6.423241 -6.475124 0.000000
-1.101446 1.688117 0.000000
0.284301 -1.492367 0.000000
-12.375472 11.990088 0.000000
46.146448 -46.199809 0.000000
40.843755 -40.687504 0.000000
-32.288089 32.906757 0.000000
-22.315665 22.667088 0.000000
50.392682 -49.907968 0.000000
14.112826 -16.639778 0.000000
-50.099469 44.298376 0.000000
-11.811396 11.532892 0.000000
22.596139 -19.221406 0.000000
10.781415 -14.168460 0.000000
12.685588 -15.220956 0.000000
-17.082915 21.222263 0.000000
-33.551521 33.696533 0.000000
35.297186 -31.847308 0.000000
42.038819 -28.678550 0.000000
-27.404817 26.153879 0.000000
-8.254209 -4.444179 0.000000
3.262800 6.719778 0.000000
-45.839897 63.819290 0.000000
37.625302 -43.615266 0.000000
105.761632 -120.306505 0.000000
-66.260213 60.389368 0.000000
-149.952621 151.814017 0.000000
38.869267 -27.078904 0.000000
116.089235 -111.344507 0.000000
-10.926689 -0.112854 0.000000
-30.855065 29.242147 0.000000
44.982758 -40.059431 0.000000
16.715725 -27.474221 0.000000
-41.530605 30.077726 0.000000
-23.770352 23.702073 0.000000
-24.281644 24.283373 0.000000
-55.923577 55.918086 0.000000
-4.483164 3.948841 0.000000
44.510574 -44.858312 0.000000
-19.191362 18.750053 0.000000
-48.340841 48.702920 0.000000
27.945228 -23.128300 0.000000
40.755207 -36.684097 0.000000
-14.011183 11.042027 0.000000
-17.197988 16.677721 0.000000
-11.338108 16.098909 0.000000
-3.799905 2.225189 0.000000
36.021856 -39.010247 0.000000
4.022836 -3.518105 0.000000
-56.025204 46.124436 0.000000
-4.191561 -4.882736 0.000000
30.040340 -18.916582 0.000000
-10.839067 14.637812 0.000000
26.392993 -45.606647 0.000000
23.951911 -31.011824 0.000000
-98.292377 112.179135 0.000000
-40.120378 50.686581 0.000000
147.736915 -145.142267 0.000000
71.241406 -78.316845 0.000000
-113.959806 102.409681 0.000000
-58.393417 63.462272 0.000000
45.661417 -36.153696 0.000000
-11.372259 6.480879 0.000000
-45.850033 48.172673 0.000000
20.102848 -5.453000 0.000000
39.790220 -34.649087 0.000000
8.232036 -9.373064 0.000000
-3.830477 6.914889 0.000000
-8.540974 6.008499 0.000000
-17.393438 8.533945 0.000000
-12.505688 13.982488 0.000000
5.845340 8.469382 0.000000
14.704978 -11.136952 0.000000
8.321901 -15.711525 0.000000
2.777546 -5.127710 0.000000
5.283256 -6.788391 0.000000
13.329266 -6.205908 0.000000
17.617893 -11.635210 0.000000
3.571916 -13.345863 0.000000
-12.431720 1.013902 0.000000
-12.871815 17.473969 0.000000
-3.263005 8.495138 0.000000
-8.145491 5.209940 0.000000
-32.198172 38.977769 0.000000
-7.194470 23.241281 0.000000
71.887801 -72.831389 0.000000
56.385427 -70.199124 0.000000
-85.415192 87.464139 0.000000
-101.802389 118.391484 0.000000
63.486672 -51.276679 0.000000
100.648705 -103.206282 0.000000
-37.305783 22.438788 0.000000
-75.934909 74.808752 0.000000
-6.119058 25.438293 0.000000
22.837031 -19.981948 0.000000
30.472503 -45.275241 0.000000
8.590415 -6.938660 0.000000
-55.143508 63.508005 0.000000
-22.346754 21.929293 0.000000
90.800146 -85.410988 0.000000
61.444213 -57.593758 0.000000
-79.229990 70.552753 0.000000
-68.045463 66.219935 0.000000
57.482199 -47.990142 0.000000
37.457640 -34.368081 0.000000
-52.295505 47.558036 0.000000
-0.922751 -1.565559 0.000000
33.980935 -32.231458 0.000000
-57.695318 60.065102 0.000000
-28.171556 31.420926 0.000000
104.298238 -97.974874 0.000000
63.690933 -58.911590 0.000000
-33.610046 33.966659 0.000000
0.792872 2.020440 0.000000
21.289731 -21.112044 0.000000
29.914247 -43.787427 0.000000
-32.663636 22.459745 0.000000
-85.733055 96.698746 0.000000
11.128216 -2.615057 0.000000
124.592337 -136.151820 0.000000
24.980934 -41.369106 0.000000
-114.236806 108.619308 0.000000
-36.302886 46.872484 0.000000
79.523117 -67.544152 0.000000
42.667938 -54.272461 0.000000
-15.278887 -0.155508 0.000000
-26.883884 36.731198 0.000000
-27.840336 36.709027 0.000000
25.292094 -33.787457 0.000000
57.952902 -61.093540 0.000000
-38.466941 37.260203 0.000000
-102.307398 94.907055 0.000000
12.495999 -9.103583 0.000000
101.418198 -93.425694 0.000000
0.893108 -6.530097 0.000000
-71.989593 63.860946 0.000000
17.505087 -15.584640 0.000000
42.876535 -38.281170 0.000000
-35.901657 35.939027 0.000000
8.300660 -10.836453 0.000000
70.348186 -72.766458 0.000000
-46.066715 41.167462 0.000000
-109.740142 103.218627 0.000000
-2.619772 0.299691 0.000000
32.318659 -31.827289 0.000000
-57.745493 57.325702 0.000000
-15.271008 14.700028 0.000000
36.455738 -34.449392 0.000000
-19.624008 24.220080 0.000000
-32.078010 32.376089 0.000000
37.711397 -40.045315 0.000000
45.300612 -45.050339 0.000000
37.753997 -37.354203 0.000000
50.242806 -49.690827 0.000000
-23.036924 22.925354 0.000000
-16.219609 12.246364 0.000000
41.496124 -44.820980 0.000000
-2.152092 3.935759 0.000000
-53.562581 54.639920 0.000000
-24.369449 23.851931 0.000000
288.947091 -284.798980 0.000000
241.063990 -250.535462 0.000000
-127.080016 133.266343 0.000000
-108.521314 151.178782 0.000000
119.982153 -88.638000 0.000000
-33.912984 39.813307 0.000000
-166.969253 170.569517 0.000000
249.291825 -248.337089 0.000000
310.609338 -309.862938 0.000000
66.245643 -49.344534 0.000000
-219.911505 260.313040 0.000000
-163.535245 211.821764 0.000000
203.027671 -157.759402 0.000000
307.574396 -276.190460 0.000000
-136.606854 130.795473 0.000000
56.977781 -37.836321 0.000000
199.046391 -167.842442 0.000000
-179.141106 183.889380 0.000000
-218.349344 238.952123 0.000000
430.117365 -365.266573 0.000000
571.977309 -522.432660 0.000000
-116.068277 121.346603 0.000000
-183.532028 202.071749 0.000000
-147.942827 165.890853 0.000000
125.454204 -111.816607 0.000000
362.460346 -345.736408 0.000000
167.597690 -151.834450 0.000000
-74.634099 81.195654 0.000000
209.688927 -201.531969 0.000000
-11.767584 6.014926 0.000000
-180.762737 182.733704 0.000000
239.593812 -202.985014 0.000000
400.226933 -386.062058 0.000000
-96.283273 61.605253 0.000000
-301.269554 274.824668 0.000000
106.208379 -128.206415 0.000000
264.763656 -287.969260 0.000000
279.517308 -272.767808 0.000000
-25.317100 25.640056 0.000000
-198.327861 166.483414 0.000000
43.222006 -70.707348 0.000000
170.501944 -174.189438 0.000000
-187.600946 165.176192 0.000000
10.507619 -26.394984 0.000000
219.109045 -244.165913 0.000000
15.560346 -65.586723 0.000000
-186.757411 145.961490 0.000000
-106.427448 88.620321 0.000000
-8.789108 1.187135 0.000000
-135.065490 142.446576 0.000000
-322.364294 302.918929 0.000000
-157.583692 98.945362 0.000000
220.305682 -257.380268 0.000000
65.806369 -73.487565 0.000000
-392.306418 363.176117 0.000000
-350.496185 314.341806 0.000000
95.049142 -109.443556 0.000000
89.395904 -130.205092 0.000000
-49.323815 32.714073 0.000000
-239.695170 239.017667 0.000000
-172.867793 157.896691 0.000000
137.906032 -147.858278 0.000000
204.551801 -204.703223 0.000000
202.228901 -239.090854 0.000000
427.709973 -455.532337 0.000000
16.397198 -4.217501 0.000000
-487.447889 489.641307 0.000000
-67.448995 49.516159 0.000000
556.356525 -542.727546 0.000000
419.703757 -381.822103 0.000000
20.662262 -15.236326 0.000000
-177.355553 184.370592 0.000000
-150.423711 132.011042 0.000000
323.612127 -323.478525 0.000000
349.175509 -333.286137 0.000000
-225.034434 214.423663 0.000000
-372.659857 361.833099 0.000000
-260.596986 275.931339 0.000000
-467.128582 473.716409 0.000000
69.873470 -70.922911 0.000000
571.330964 -562.238916 0.000000
31.032516 -21.945065 0.000000
-659.446106 639.931802 0.000000
-513.327664 478.022955 0.000000
-50.997479 35.905423 0.000000
260.359199 -258.157138 0.000000
219.434734 -181.530062 0.000000
-372.811750 383.137492 0.000000
-401.444201 400.487700 0.000000
195.653133 -163.395134 0.000000
342.155836 -316.984355 0.000000
334.980775 -313.318213 0.000000
482.056426 -452.712631 0.000000
-93.171234 106.428240 0.000000
-549.885557 574.997394 0.000000
-54.747888 105.251674 0.000000
620.817732 -566.708325 0.000000
541.588816 -506.155069 0.000000
84.541652 -32.505937 0.000000
-153.858885 196.163344 0.000000
-135.951576 149.412983 0.000000
251.559689 -207.201921 0.000000
334.139259 -281.150620 0.000000
59.555364 -47.583752 0.000000
-83.659468 78.574525 0.000000
-200.212292 194.638451 0.000000
-250.077591 278.964700 0.000000
53.050658 5.738784 0.000000
354.481386 -339.390117 0.000000
231.333559 -254.112000 0.000000
-177.455509 174.419213 0.000000
-283.591744 297.468083 0.000000
56.726114 -80.350435 0.000000
126.427365 -112.283086 0.000000
26.585988 0.708040 0.000000
-43.418488 25.340164 0.000000
-55.590835 25.557655 0.000000
-72.656593 73.013748 0.000000
-12.966826 20.059648 0.000000
5.327377 22.961031 0.000000
73.509969 -81.670247 0.000000
161.418718 -201.048584 0.000000
-79.757157 82.091127 0.000000
-378.422368 394.220921 0.000000
-164.958411 120.491623 0.000000
104.853222 -166.929678 0.000000
-224.538774 252.315742 0.000000
-17.601091 2.638759 0.000000
160.769851 -188.485571 0.000000
-206.947236 205.890062 0.000000
-307.197306 287.936119 0.000000
66.010125 -119.722424 0.000000
155.131062 -184.409988 0.000000
250.312182 -264.153569 0.000000
106.700322 -103.288142 0.000000
-454.665423 458.508617 0.000000
-330.506722 279.276802 0.000000
349.792987 -424.016411 0.000000
396.759402 -391.300519 0.000000
53.573623 5.626074 0.000000
410.078626 -445.471801 0.000000
-121.336360 105.484595 0.000000
-580.881448 569.233119 0.000000
113.941671 -159.566404 0.000000
531.382900 -571.605178 0.000000
-59.608401 65.612769 0.000000
-357.537386 373.266343 0.000000
-445.611596 404.188390 0.000000
-448.489254 395.108457 0.000000
225.474064 -260.276118 0.000000
413.273476 -413.696349 0.000000
-189.879680 213.473485 0.000000
-509.549829 486.076655 0.000000
-269.809495 213.511219 0.000000
-653.436804 652.617321 0.000000
-196.434869 173.170927 0.000000
506.564454 -544.276427 0.000000
44.030782 -45.916301 0.000000
-450.003869 491.604015 0.000000
77.740269 -47.539323 0.000000
437.553647 -441.295267 0.000000
240.119949 -195.216690 0.000000
261.476584 -236.152960 0.000000
-27.802303 22.239680 0.000000
-108.563060 104.852613 0.000000
229.583800 -212.093240 0.000000
505.323606 -443.564593 0.000000
363.526818 -302.069900 0.000000
506.621581 -505.189920 0.000000
261.457093 -247.998158 0.000000
-106.841074 147.197312 0.000000
250.223133 -224.388280 0.000000
409.816540 -423.545352 0.000000
-228.297027 227.076258 0.000000
-499.207937 535.107081 0.000000
-35.235454 -0.099507 0.000000
60.294289 -67.597978 0.000000
249.153431 -230.092377 0.000000
182.660918 -163.654704 0.000000
-277.521852 282.722353 0.000000
-662.583362 645.192048 0.000000
-498.415203 484.074527 0.000000
-71.468072 89.628498 0.000000
119.768347 -113.829659 0.000000
101.503684 -138.211415 0.000000
-360.190458 347.829851 0.000000
-454.440320 507.222979 0.000000
75.860215 -36.664074 0.000000
296.423964 -316.871891 0.000000
239.049957 -213.817326 0.000000
170.451331 -161.246297 0.000000
-243.254984 230.835284 0.000000
-377.347169 372.899195 0.000000
82.228798 -52.220241 0.000000
540.078582 -495.279809 0.000000
430.605797 -410.671508 0.000000
53.450776 -94.513116 0.000000
-60.948413 44.222720 0.000000
-129.318969 166.551226 0.000000
90.799558 -71.193193 0.000000
252.247845 -276.171362 0.000000
93.810413 -87.468966 0.000000
-39.303050 85.380132 0.000000
-222.852874 180.912406 0.000000
-215.057278 181.778862 0.000000
49.934165 -42.098097 0.000000
191.464075 -173.644237 0.000000
27.955120 -30.753534 0.000000
-180.465251 180.381303 0.000000
-173.410986 184.929820 0.000000
-115.214715 117.641646 0.000000
-102.764761 85.374757 0.000000
-15.603821 -13.409748 0.000000
0.737847 0.656019 0.000000
-22.075589 54.795710 0.000000
-19.917121 28.803074 0.000000
-16.745312 -1.625492 0.000000
88.652587 -86.239052 0.000000
-162.811065 159.350928 0.000000
-160.657182 157.806718 0.000000
186.598685 -186.868342 0.000000
-332.498114 334.295981 0.000000
-132.145662 135.939931 0.000000
16.568755 -18.085217 0.000000
-51.204052 58.204378 0.000000
91.401251 -97.487830 0.000000
-121.229928 138.571176 0.000000
187.330978 -215.677356 0.000000
57.698830 -80.414206 0.000000
45.263121 -24.657929 0.000000
-33.090360 -10.460294 0.000000
-102.119062 89.534684 0.000000
64.118733 -59.933545 0.000000
-86.449466 70.621190 0.000000
41.445696 -41.584222 0.000000
-135.809839 135.557026 0.000000
143.989206 -147.313996 0.000000
154.640509 -154.994421 0.000000
-99.804895 99.994901 0.000000
105.856560 -108.123616 0.000000
192.204367 -189.084398 0.000000
-138.272266 138.229387 0.000000
-338.817770 333.770980 0.000000
398.609978 -397.450549 0.000000
-319.517399 318.731988 0.000000
-317.964158 322.982848 0.000000
129.128998 -130.539618 0.000000
-217.682609 210.051584 0.000000
69.131293 -80.561284 0.000000
-178.617304 212.507893 0.000000
97.543998 -128.080206 0.000000
167.423107 -217.393865 0.000000
-76.234137 130.704351 0.000000
249.223885 -296.911523 0.000000
-16.993031 -28.107486 0.000000
58.482354 -26.770395 0.000000
-12.239466 -36.194167 0.000000
-47.287025 26.399814 0.000000
18.299130 -2.042667 0.000000
-318.840284 278.677314 0.000000
-2.379757 -11.165984 0.000000
4.174931 2.970438 0.000000
-195.637919 180.550093 0.000000
18.672668 -21.739841 0.000000
97.524948 -92.607921 0.000000
-54.000899 57.450715 0.000000
125.687767 -123.918550 0.000000
82.164877 -85.768726 0.000000
-213.825551 202.995375 0.000000
258.824511 -236.792256 0.000000
-189.344640 156.805521 0.000000
-192.203052 166.676694 0.000000
0.381481 23.732582 0.000000
-46.685532 27.146649 0.000000
236.193750 -255.862188 0.000000
-370.973105 395.083682 0.000000
309.963199 -315.908213 0.000000
288.742509 -322.916746 0.000000
4.599236 47.074329 0.000000
-82.502886 36.284497 0.000000
-361.075223 298.471666 0.000000
583.836310 -522.885025 0.000000
-625.694274 561.108197 0.000000
-560.775906 513.118051 0.000000
346.704505 -324.235409 0.000000
-340.535491 317.218107 0.000000
-134.466748 130.680208 0.000000
66.405966 -67.473417 0.000000
206.454733 -203.194745 0.000000
-193.311080 200.267368 0.000000
155.420565 -168.133993 0.000000
99.342713 -120.810924 0.000000
9.433605 22.637825 0.000000
188.657375 -210.531705 0.000000
-55.202564 27.349133 0.000000
18.548612 -2.382349 0.000000
38.937962 -55.794747 0.000000
44.548111 -45.948909 0.000000
-48.944416 50.248924 0.000000
-285.434244 270.948768 0.000000
-48.905151 35.331047 0.000000
214.306786 -181.250813 0.000000
-313.267654 297.140526 0.000000
-354.801056 306.625220 0.000000
390.081569 -343.157194 0.000000
-11.543941 -0.325889 0.000000
-306.925451 272.512022 0.000000
164.982070 -147.948310 0.000000
71.199158 -76.580413 0.000000
57.669774 -52.408680 0.000000
-150.073632 144.738405 0.000000
-64.276040 53.259341 0.000000
-8.583906 21.174120 0.000000
-151.361764 147.820968 0.000000
151.701718 -159.651972 0.000000
-273.348724 278.958566 0.000000
165.298053 -158.407414 0.000000
259.935647 -266.144613 0.000000
-61.828779 80.489956 0.000000
15.359189 -37.028654 0.000000
-243.243071 213.766563 0.000000
486.367086 -455.054328 0.000000
-419.324997 386.039144 0.000000
-516.479095 494.163612 0.000000
306.792125 -304.590467 0.000000
-185.226850 198.958025 0.000000
17.276433 -2.966681 0.000000
-267.548008 247.888911 0.000000
284.722036 -249.204218 0.000000
325.683043 -308.286882 0.000000
-215.027074 209.857195 0.000000
185.744963 -175.819189 0.000000
146.205852 -146.798889 0.000000
-50.265507 60.835621 0.000000
-225.229077 229.912913 0.000000
230.201539 -242.489979 0.000000
-183.301915 212.279577 0.000000
-164.336771 181.066789 0.000000
85.433947 -95.927472 0.000000
-311.964370 321.646713 0.000000
-51.165565 46.013260 0.000000
75.000002 -54.447757 0.000000
-152.474957 142.903278 0.000000
-119.332318 92.639317 0.000000
133.387472 -117.557272 0.000000
167.431125 -151.559129 0.000000
-94.620171 100.056208 0.000000
21.805278 -45.857285 0.000000
105.925516 -73.007195 0.000000
43.934556 -8.974481 0.000000
-71.595889 43.187687 0.000000
-154.931224 169.464418 0.000000
61.392181 -44.220962 0.000000
-31.657181 24.411842 0.000000
-108.232883 110.875881 0.000000
-69.383600 52.732518 0.000000
138.169647 -122.796351 0.000000
63.846214 -34.870905 0.000000
39.629402 -71.526828 0.000000
132.778510 -109.975174 0.000000
-211.481451 231.576444 0.000000
350.074798 -359.065733 0.000000
-158.687450 176.391113 0.000000
-348.661040 350.672951 0.000000
178.715737 -190.458019 0.000000
-156.629610 195.098825 0.000000
74.764515 -45.358467 0.000000
-268.369251 227.679060 0.000000
120.571415 -73.000887 0.000000
296.592732 -251.547988 0.000000
-158.645681 126.186604 0.000000
169.434042 -142.024785 0.000000
-41.394925 59.289173 0.000000
180.406785 -186.049570 0.000000
43.563565 -30.708315 0.000000
-195.920118 193.722122 0.000000
120.002448 -120.972185 0.000000
0.223725 6.053304 0.000000
-123.371185 117.355689 0.000000
52.695381 -56.825508 0.000000
207.401477 -202.153526 0.000000
-246.649944 240.020876 0.000000
243.288123 -243.188138 0.000000
219.425941 -206.280397 0.000000
-128.164868 97.790997 0.000000
301.605683 -258.940109 0.000000
2.403679 46.035910 0.000000
112.601372 -168.417677 0.000000
-55.721544 109.924093 0.000000
-166.408824 218.453867 0.000000
124.268585 -160.095037 0.000000
-230.132077 246.426265 0.000000
8.719896 15.576891 0.000000
-179.446105 158.881070 0.000000
187.578231 -173.879787 0.000000
310.816401 -285.466134 0.000000
-341.416694 311.645053 0.000000
446.980558 -408.318847 0.000000
268.733597 -242.598226 0.000000
-145.324586 128.988896 0.000000
184.875409 -161.900603 0.000000
20.418539 -13.485173 0.000000
-61.454813 61.955786 0.000000
18.566095 -22.539277 0.000000
-108.271628 98.115191 0.000000
-107.045983 139.321078 0.000000
200.719788 -170.375501 0.000000
-225.913459 182.816478 0.000000
-37.699097 71.411986 0.000000
156.361625 -111.564952 0.000000
-30.356378 -2.655955 0.000000
154.362287 -151.076526 0.000000
-65.847663 83.923002 0.000000
66.784518 -74.754602 0.000000
254.594257 -247.814031 0.000000
26.144184 -18.039736 0.000000
-150.017245 135.468396 0.000000
18.688693 -3.936975 0.000000
227.362059 -202.212867 0.000000
-221.156795 191.245941 0.000000
-221.894751 227.319131 0.000000
152.622152 -126.099361 0.000000
-71.075104 52.177791 0.000000
-120.506778 124.341708 0.000000
72.437106 -85.139112 0.000000
-70.973017 92.213757 0.000000
-177.009552 209.559349 0.000000
302.250672 -349.278519 0.000000
-358.834432 402.948880 0.000000
-367.077806 406.347406 0.000000
284.399386 -302.474085 0.000000
-309.913126 318.014949 0.000000
-37.537327 30.376209 0.000000
-278.928894 293.175647 0.000000
313.043667 -327.618814 0.000000
498.450802 -501.311510 0.000000
-480.588023 466.976246 0.000000
390.659962 -378.747465 0.000000
213.990640 -191.291931 0.000000
172.326354 -185.581958 0.000000
-311.448812 321.448970 0.000000
-483.487440 475.082411 0.000000
581.363888 -559.732015 0.000000
-576.623770 548.583510 0.000000
-465.494567 436.462559 0.000000
249.044438 -233.283649 0.000000
-208.925691 183.161482 0.000000
64.105184 -81.825075 0.000000
-34.613993 40.793686 0.000000
-152.524630 171.630374 0.000000
222.864874 -241.191345 0.000000
60.559196 -69.669326 0.000000
-205.712480 213.130475 0.000000
82.375010 -87.678375 0.000000
235.112643 -226.719966 0.000000
84.635983 -82.678405 0.000000
-188.381391 187.103664 0.000000
-73.071048 88.764868 0.000000
154.151414 -153.625248 0.000000
2.749262 -2.515882 0.000000
-445.765910 433.146563 0.000000
-185.227076 183.866982 0.000000
289.218785 -289.566726 0.000000
-75.778541 73.920205 0.000000
-271.791365 263.544420 0.000000
172.744903 -158.805548 0.000000
394.604186 -378.931799 0.000000
-69.580050 47.564415 0.000000
11.944439 7.476313 0.000000
221.618823 -220.652644 0.000000
-26.904084 32.431921 0.000000
98.502635 -106.748633 0.000000
147.049087 -167.509722 0.000000
-334.861780 357.285507 0.000000
427.759569 -441.389328 0.000000
468.854676 -480.421722 0.000000
-400.550300 393.154392 0.000000
285.537093 -285.961014 0.000000
90.339056 -71.719773 0.000000
335.466122 -349.347181 0.000000
-423.469038 422.548931 0.000000
-641.136237 634.783992 0.000000
632.383809 -612.497814 0.000000
-415.916692 403.442663 0.000000
-292.003852 271.664599 0.000000