# vtk DataFile Version 2.0
cantilever_tri3_mix
ASCII
DATASET POLYDATA
POINTS 153 float
0.000000 0.000000 0.000000
48.000000 44.000000 0.000000
48.000000 60.000000 0.000000
0.000000 44.000000 0.000000
4.218053 3.866549 0.000000
8.235246 7.548976 0.000000
12.061145 11.056049 0.000000
15.704857 14.396119 0.000000
19.175060 17.577138 0.000000
22.480015 20.606680 0.000000
25.627591 23.491958 0.000000
28.625282 26.239842 0.000000
31.480227 28.856874 0.000000
34.199221 31.349286 0.000000
36.788740 33.723011 0.000000
39.254948 35.983702 0.000000
41.603718 38.136741 0.000000
43.840641 40.187254 0.000000
45.971044 42.140124 0.000000
48.000000 46.000000 0.000000
48.000000 48.000000 0.000000
48.000000 50.000000 0.000000
48.000000 52.000000 0.000000
48.000000 54.000000 0.000000
48.000000 56.000000 0.000000
48.000000 58.000000 0.000000
45.971044 59.323681 0.000000
43.840641 58.613547 0.000000
41.603718 57.867906 0.000000
39.254948 57.084983 0.000000
36.788740 56.262913 0.000000
34.199221 55.399740 0.000000
31.480227 54.493409 0.000000
28.625282 53.541761 0.000000
25.627591 52.542530 0.000000
22.480015 51.493338 0.000000
19.175060 50.391687 0.000000
15.704857 49.234952 0.000000
12.061145 48.020382 0.000000
8.235246 46.745082 0.000000
4.218053 45.406018 0.000000
0.000000 38.500000 0.000000
0.000000 33.000000 0.000000
0.000000 27.500000 0.000000
0.000000 22.000000 0.000000
0.000000 16.500000 0.000000
0.000000 11.000000 0.000000
0.000000 5.500000 0.000000
4.218053 9.058982 0.000000
4.218053 14.251416 0.000000
4.218053 19.443849 0.000000
4.218053 24.636283 0.000000
4.218053 29.828717 0.000000
4.218053 35.021150 0.000000
4.218053 40.213584 0.000000
8.235246 12.448489 0.000000
8.235246 17.348002 0.000000
8.235246 22.247516 0.000000
8.235246 27.147029 0.000000
8.235246 32.046542 0.000000
8.235246 36.946055 0.000000
8.235246 41.845569 0.000000
12.061145 15.676591 0.000000
12.061145 20.297132 0.000000
12.061145 24.917674 0.000000
12.061145 29.538215 0.000000
12.061145 34.158757 0.000000
12.061145 38.779298 0.000000
12.061145 43.399840 0.000000
15.704857 18.750973 0.000000
15.704857 23.105827 0.000000
15.704857 27.460682 0.000000
15.704857 31.815536 0.000000
15.704857 36.170390 0.000000
15.704857 40.525244 0.000000
15.704857 44.880098 0.000000
19.175060 21.678957 0.000000
19.175060 25.780775 0.000000
19.175060 29.882594 0.000000
19.175060 33.984412 0.000000
19.175060 38.086231 0.000000
19.175060 42.188050 0.000000
19.175060 46.289868 0.000000
22.480015 24.467512 0.000000
22.480015 28.328345 0.000000
22.480015 32.189177 0.000000
22.480015 36.050009 0.000000
22.480015 39.910841 0.000000
22.480015 43.771674 0.000000
22.480015 47.632506 0.000000
25.627591 27.123280 0.000000
25.627591 30.754601 0.000000
25.627591 34.385923 0.000000
25.627591 38.017244 0.000000
25.627591 41.648566 0.000000
25.627591 45.279887 0.000000
25.627591 48.911209 0.000000
28.625282 29.652582 0.000000
28.625282 33.065322 0.000000
28.625282 36.478062 0.000000
28.625282 39.890801 0.000000
28.625282 43.303541 0.000000
28.625282 46.716281 0.000000
28.625282 50.129021 0.000000
31.480227 32.061441 0.000000
31.480227 35.266008 0.000000
31.480227 38.470575 0.000000
31.480227 41.675142 0.000000
31.480227 44.879708 0.000000
31.480227 48.084275 0.000000
31.480227 51.288842 0.000000
34.199221 34.355593 0.000000
34.199221 37.361900 0.000000
34.199221 40.368206 0.000000
34.199221 43.374513 0.000000
34.199221 46.380820 0.000000
34.199221 49.387127 0.000000
34.199221 52.393434 0.000000
36.788740 36.540499 0.000000
36.788740 39.357987 0.000000
36.788740 42.175475 0.000000
36.788740 44.992962 0.000000
36.788740 47.810450 0.000000
36.788740 50.627938 0.000000
36.788740 53.445425 0.000000
39.254948 38.621362 0.000000
39.254948 41.259022 0.000000
39.254948 43.896682 0.000000
39.254948 46.534342 0.000000
39.254948 49.172002 0.000000
39.254948 51.809662 0.000000
39.254948 54.447323 0.000000
41.603718 40.603137 0.000000
41.603718 43.069532 0.000000
41.603718 45.535928 0.000000
41.603718 48.002323 0.000000
41.603718 50.468719 0.000000
41.603718 52.935115 0.000000
41.603718 55.401510 0.000000
43.840641 42.490541 0.000000
43.840641 44.793827 0.000000
43.840641 47.097114 0.000000
43.840641 49.400401 0.000000
43.840641 51.703687 0.000000
43.840641 54.006974 0.000000
43.840641 56.310260 0.000000
45.971044 44.288069 0.000000
45.971044 46.436013 0.000000
45.971044 48.583958 0.000000
45.971044 50.731903 0.000000
45.971044 52.879847 0.000000
45.971044 55.027792 0.000000
45.971044 57.175737 0.000000
POLYGONS 256 1024
3 0 4 47
3 47 4 48
3 47 48 46
3 46 48 49
3 46 49 45
3 45 49 50
3 45 50 44
3 44 50 51
3 44 51 43
3 43 51 52
3 43 52 42
3 42 52 53
3 42 53 41
3 41 53 54
3 41 54 3
3 3 54 40
3 4 5 48
3 48 5 55
3 48 55 49
3 49 55 56
3 49 56 50
3 50 56 57
3 50 57 51
3 51 57 58
3 51 58 52
3 52 58 59
3 52 59 53
3 53 59 60
3 53 60 54
3 54 60 61
3 54 61 40
3 40 61 39
3 5 6 55
3 55 6 62
3 55 62 56
3 56 62 63
3 56 63 57
3 57 63 64
3 57 64 58
3 58 64 65
3 58 65 59
3 59 65 66
3 59 66 60
3 60 66 67
3 60 67 61
3 61 67 68
3 61 68 39
3 39 68 38
3 6 7 62
3 62 7 69
3 62 69 63
3 63 69 70
3 63 70 64
3 64 70 71
3 64 71 65
3 65 71 72
3 65 72 66
3 66 72 73
3 66 73 67
3 67 73 74
3 67 74 68
3 68 74 75
3 68 75 38
3 38 75 37
3 7 8 69
3 69 8 76
3 69 76 70
3 70 76 77
3 70 77 71
3 71 77 78
3 71 78 72
3 72 78 79
3 72 79 73
3 73 79 80
3 73 80 74
3 74 80 81
3 74 81 75
3 75 81 82
3 75 82 37
3 37 82 36
3 8 9 76
3 76 9 83
3 76 83 77
3 77 83 84
3 77 84 78
3 78 84 85
3 78 85 79
3 79 85 86
3 79 86 80
3 80 86 87
3 80 87 81
3 81 87 88
3 81 88 82
3 82 88 89
3 82 89 36
3 36 89 35
3 9 10 83
3 83 10 90
3 83 90 84
3 84 90 91
3 84 91 85
3 85 91 92
3 85 92 86
3 86 92 93
3 86 93 87
3 87 93 94
3 87 94 88
3 88 94 95
3 88 95 89
3 89 95 96
3 89 96 35
3 35 96 34
3 10 11 90
3 90 11 97
3 90 97 91
3 91 97 98
3 91 98 92
3 92 98 99
3 92 99 93
3 93 99 100
3 93 100 94
3 94 100 101
3 94 101 95
3 95 101 102
3 95 102 96
3 96 102 103
3 96 103 34
3 34 103 33
3 11 12 97
3 97 12 104
3 97 104 98
3 98 104 105
3 98 105 99
3 99 105 106
3 99 106 100
3 100 106 107
3 100 107 101
3 101 107 108
3 101 108 102
3 102 108 109
3 102 109 103
3 103 109 110
3 103 110 33
3 33 110 32
3 12 13 104
3 104 13 111
3 104 111 105
3 105 111 112
3 105 112 106
3 106 112 113
3 106 113 107
3 107 113 114
3 107 114 108
3 108 114 115
3 108 115 109
3 109 115 116
3 109 116 110
3 110 116 117
3 110 117 32
3 32 117 31
3 13 14 111
3 111 14 118
3 111 118 112
3 112 118 119
3 112 119 113
3 113 119 120
3 113 120 114
3 114 120 121
3 114 121 115
3 115 121 122
3 115 122 116
3 116 122 123
3 116 123 117
3 117 123 124
3 117 124 31
3 31 124 30
3 14 15 118
3 118 15 125
3 118 125 119
3 119 125 126
3 119 126 120
3 120 126 127
3 120 127 121
3 121 127 128
3 121 128 122
3 122 128 129
3 122 129 123
3 123 129 130
3 123 130 124
3 124 130 131
3 124 131 30
3 30 131 29
3 15 16 125
3 125 16 132
3 125 132 126
3 126 132 133
3 126 133 127
3 127 133 134
3 127 134 128
3 128 134 135
3 128 135 129
3 129 135 136
3 129 136 130
3 130 136 137
3 130 137 131
3 131 137 138
3 131 138 29
3 29 138 28
3 16 17 132
3 132 17 139
3 132 139 133
3 133 139 140
3 133 140 134
3 134 140 141
3 134 141 135
3 135 141 142
3 135 142 136
3 136 142 143
3 136 143 137
3 137 143 144
3 137 144 138
3 138 144 145
3 138 145 28
3 28 145 27
3 17 18 139
3 139 18 146
3 139 146 140
3 140 146 147
3 140 147 141
3 141 147 148
3 141 148 142
3 142 148 149
3 142 149 143
3 143 149 150
3 143 150 144
3 144 150 151
3 144 151 145
3 145 151 152
3 145 152 27
3 27 152 26
3 18 1 146
3 146 1 19
3 146 19 147
3 147 19 20
3 147 20 148
3 148 20 21
3 148 21 149
3 149 21 22
3 149 22 150
3 150 22 23
3 150 23 151
3 151 23 24
3 151 24 152
3 152 24 25
3 152 25 26
3 26 25 2
POINT_DATA 153
SCALARS P float
LOOKUP_TABLE default
5.634224
4.723695
1.098191
-16.787885
5.409450
5.548511
6.678126
7.358556
8.742803
11.013224
11.104254
11.288590
11.651713
11.639886
11.410129
10.639863
10.415795
9.532935
7.761735
4.235684
4.950940
4.971314
5.880480
5.558399
4.850146
3.164037
-1.224841
-2.881276
-4.340277
-5.805540
-4.937152
-7.803034
-6.667330
-8.304951
-8.451321
-8.464534
-8.839605
-9.818944
-8.324640
-10.919696
-10.950993
-8.571185
-5.679364
4.793330
4.228749
7.653071
6.091116
5.950567
6.221048
6.171655
6.499427
3.690051
0.592657
-5.290364
-10.832823
6.542896
5.312024
5.900968
1.772238
-0.091003
-5.873903
-8.014367
7.466768
5.884056
4.304124
2.012403
-1.098395
-5.079991
-7.759062
8.345313
6.814695
4.380355
1.709971
-1.113743
-3.822053
-8.038705
8.394125
7.052712
4.683054
1.899771
-1.270461
-4.182834
-6.221994
9.331083
7.243223
4.925279
2.227061
-0.491056
-3.846370
-7.971455
9.971409
7.546526
4.713500
2.501199
-0.714168
-3.198871
-5.780645
10.319961
7.951397
4.869477
1.769621
-0.351514
-3.579407
-7.467075
9.970716
7.905525
6.043225
2.902328
-0.868557
-2.505444
-4.852013
10.400593
6.603927
4.458766
2.733974
0.521151
-3.020213
-6.357192
9.999933
8.005840
4.936354
2.010820
-0.746232
-2.730532
-4.148059
9.867158
6.753093
4.486482
2.809720
1.676360
-0.633907
-3.663008
8.164829
6.662324
4.815084
2.206290
0.298354
-1.457055
-3.857765
7.701058
5.345093
3.635621
2.874190
1.908067
1.106203
-0.802395
5.606933
4.184565
4.828050
4.918578
4.557830
3.296125
0.671471
