# vtk DataFile Version 2.0
cantilever_tri3_mix
ASCII
DATASET POLYDATA
POINTS 45 float
0.000000 0.000000 0.000000
48.000000 44.000000 0.000000
48.000000 60.000000 0.000000
0.000000 44.000000 0.000000
7.072997 6.483581 0.000000
13.809185 12.658420 0.000000
20.224602 18.539218 0.000000
26.334523 24.139979 0.000000
32.153495 29.474037 0.000000
37.695374 34.554092 0.000000
42.973353 39.392240 0.000000
48.000000 48.000000 0.000000
48.000000 52.000000 0.000000
48.000000 56.000000 0.000000
42.973353 58.324451 0.000000
37.695374 56.565125 0.000000
32.153495 54.717832 0.000000
26.334523 52.778174 0.000000
20.224602 50.741534 0.000000
13.809185 48.603062 0.000000
7.072997 46.357666 0.000000
0.000000 33.000000 0.000000
0.000000 22.000000 0.000000
0.000000 11.000000 0.000000
7.072997 16.452102 0.000000
7.072997 26.420623 0.000000
7.072997 36.389144 0.000000
13.809185 21.644580 0.000000
13.809185 30.630741 0.000000
13.809185 39.616901 0.000000
20.224602 26.589797 0.000000
20.224602 34.640376 0.000000
20.224602 42.690955 0.000000
26.334523 31.299528 0.000000
26.334523 38.459077 0.000000
26.334523 45.618626 0.000000
32.153495 35.784986 0.000000
32.153495 42.095934 0.000000
32.153495 48.406883 0.000000
37.695374 40.056850 0.000000
37.695374 45.559608 0.000000
37.695374 51.062366 0.000000
42.973353 44.125293 0.000000
42.973353 48.858346 0.000000
42.973353 53.591398 0.000000
POLYGONS 64 256
3 0 4 23
3 23 4 24
3 23 24 22
3 22 24 25
3 22 25 21
3 21 25 26
3 21 26 3
3 3 26 20
3 4 5 24
3 24 5 27
3 24 27 25
3 25 27 28
3 25 28 26
3 26 28 29
3 26 29 20
3 20 29 19
3 5 6 27
3 27 6 30
3 27 30 28
3 28 30 31
3 28 31 29
3 29 31 32
3 29 32 19
3 19 32 18
3 6 7 30
3 30 7 33
3 30 33 31
3 31 33 34
3 31 34 32
3 32 34 35
3 32 35 18
3 18 35 17
3 7 8 33
3 33 8 36
3 33 36 34
3 34 36 37
3 34 37 35
3 35 37 38
3 35 38 17
3 17 38 16
3 8 9 36
3 36 9 39
3 36 39 37
3 37 39 40
3 37 40 38
3 38 40 41
3 38 41 16
3 16 41 15
3 9 10 39
3 39 10 42
3 39 42 40
3 40 42 43
3 40 43 41
3 41 43 44
3 41 44 15
3 15 44 14
3 10 1 42
3 42 1 11
3 42 11 43
3 43 11 12
3 43 12 44
3 44 12 13
3 44 13 14
3 14 13 2
POINT_DATA 45
VECTORS U float
0.086205 0.090414 0.000000
-5.603033 25.547728 0.000000
-19.564603 27.294202 0.000000
-0.361243 0.879679 0.000000
-0.004222 1.588762 0.000000
0.423148 2.933637 0.000000
1.082110 4.697738 0.000000
1.361498 7.377076 0.000000
0.954921 10.999455 0.000000
-0.275764 15.405493 0.000000
-2.439466 20.331452 0.000000
-8.602797 25.984244 0.000000
-11.689425 26.510922 0.000000
-15.253997 26.964918 0.000000
-17.255180 21.556301 0.000000
-14.866506 16.571025 0.000000
-12.428804 12.281700 0.000000
-9.962630 8.669588 0.000000
-7.536411 5.625687 0.000000
-5.158710 3.457399 0.000000
-2.674000 1.889094 0.000000
0.075506 -0.127516 0.000000
-0.044161 0.019490 0.000000
0.066356 0.006043 0.000000
0.285654 1.273823 0.000000
0.272386 0.583536 0.000000
-0.261306 0.454820 0.000000
0.831426 2.467946 0.000000
0.353838 1.966047 0.000000
-1.438706 2.206603 0.000000
0.995358 4.374706 0.000000
-0.320829 4.216180 0.000000
-3.144174 4.613117 0.000000
0.485560 7.214058 0.000000
-1.725468 7.283850 0.000000
-5.199408 7.761199 0.000000
-0.800609 10.911304 0.000000
-3.679074 11.070494 0.000000
-7.518694 11.551460 0.000000
-2.768205 15.366255 0.000000
-6.075926 15.576755 0.000000
-9.973529 16.008552 0.000000
-5.387359 20.442919 0.000000
-8.747510 20.753741 0.000000
-12.557594 21.153388 0.000000
CELL_DATA 64
SCALARS P float 1
LOOKUP_TABLE default
4.887350
9.736793
8.469648
1.494249
4.616894
6.057402
1.639474
-19.286338
1.237510
16.182489
1.491354
23.857432
-15.061549
-19.626804
15.728157
-19.227739
2.644680
15.083197
-20.297083
18.293517
28.859063
-29.333569
-15.396095
10.621804
10.402863
10.100773
3.679322
-9.865486
8.545131
24.459575
-29.057609
-10.487469
11.786378
8.710912
0.815409
18.062170
-11.186966
-4.642971
-1.318782
-15.601332
15.059943
2.350455
9.293561
-14.861795
17.890123
-24.988033
15.706151
-27.716744
19.370178
-10.063203
16.825341
33.144417
3.383728
-22.849801
38.867803
-27.759212
17.233687
-6.239321
-22.697046
49.013979
-27.338940
-10.301858
22.733206
-7.729509
