# vtk DataFile Version 2.0
cantilever_tri3_mix
ASCII
DATASET POLYDATA
POINTS 561 float
0.000000 0.000000 0.000000
48.000000 44.000000 0.000000
48.000000 60.000000 0.000000
0.000000 44.000000 0.000000
2.892819 2.651751 0.000000
5.647885 5.177228 0.000000
8.271757 7.582444 0.000000
10.770683 9.873126 0.000000
13.150613 12.054728 0.000000
15.417212 14.132444 0.000000
17.575878 16.111222 0.000000
19.631751 17.995772 0.000000
21.589725 19.790581 0.000000
23.454462 21.499923 0.000000
25.230402 23.127868 0.000000
26.921773 24.678292 0.000000
28.532603 26.154886 0.000000
30.066727 27.561166 0.000000
31.527797 28.900481 0.000000
32.919293 30.176018 0.000000
34.244527 31.390816 0.000000
35.506654 32.547766 0.000000
36.708680 33.649623 0.000000
37.853467 34.699011 0.000000
38.943740 35.698428 0.000000
39.982095 36.650254 0.000000
40.971005 37.556755 0.000000
41.912824 38.420089 0.000000
42.809794 39.242312 0.000000
43.664052 40.025381 0.000000
44.477630 40.771161 0.000000
45.252467 41.481428 0.000000
45.990407 42.157873 0.000000
46.693207 42.802106 0.000000
47.362540 43.415662 0.000000
48.000000 45.000000 0.000000
48.000000 46.000000 0.000000
48.000000 47.000000 0.000000
48.000000 48.000000 0.000000
48.000000 49.000000 0.000000
48.000000 50.000000 0.000000
48.000000 51.000000 0.000000
48.000000 52.000000 0.000000
48.000000 53.000000 0.000000
48.000000 54.000000 0.000000
48.000000 55.000000 0.000000
48.000000 56.000000 0.000000
48.000000 57.000000 0.000000
48.000000 58.000000 0.000000
48.000000 59.000000 0.000000
47.362540 59.787513 0.000000
46.693207 59.564402 0.000000
45.990407 59.330136 0.000000
45.252467 59.084156 0.000000
44.477630 58.825877 0.000000
43.664052 58.554684 0.000000
42.809794 58.269931 0.000000
41.912824 57.970941 0.000000
40.971005 57.657002 0.000000
39.982095 57.327365 0.000000
38.943740 56.981247 0.000000
37.853467 56.617822 0.000000
36.708680 56.236227 0.000000
35.506654 55.835551 0.000000
34.244527 55.414842 0.000000
32.919293 54.973098 0.000000
31.527797 54.509266 0.000000
30.066727 54.022242 0.000000
28.532603 53.510868 0.000000
26.921773 52.973924 0.000000
25.230402 52.410134 0.000000
23.454462 51.818154 0.000000
21.589725 51.196575 0.000000
19.631751 50.543917 0.000000
17.575878 49.858626 0.000000
15.417212 49.139071 0.000000
13.150613 48.383538 0.000000
10.770683 47.590228 0.000000
8.271757 46.757252 0.000000
5.647885 45.882628 0.000000
2.892819 44.964273 0.000000
0.000000 41.250000 0.000000
0.000000 38.500000 0.000000
0.000000 35.750000 0.000000
0.000000 33.000000 0.000000
0.000000 30.250000 0.000000
0.000000 27.500000 0.000000
0.000000 24.750000 0.000000
0.000000 22.000000 0.000000
0.000000 19.250000 0.000000
0.000000 16.500000 0.000000
0.000000 13.750000 0.000000
0.000000 11.000000 0.000000
0.000000 8.250000 0.000000
0.000000 5.500000 0.000000
0.000000 2.750000 0.000000
2.892819 5.296284 0.000000
2.892819 7.940816 0.000000
2.892819 10.585349 0.000000
2.892819 13.229881 0.000000
2.892819 15.874414 0.000000
2.892819 18.518947 0.000000
2.892819 21.163479 0.000000
2.892819 23.808012 0.000000
2.892819 26.452545 0.000000
2.892819 29.097077 0.000000
2.892819 31.741610 0.000000
2.892819 34.386143 0.000000
2.892819 37.030675 0.000000
2.892819 39.675208 0.000000
2.892819 42.319740 0.000000
5.647885 7.721315 0.000000
5.647885 10.265403 0.000000
5.647885 12.809490 0.000000
5.647885 15.353578 0.000000
5.647885 17.897666 0.000000
5.647885 20.441753 0.000000
5.647885 22.985841 0.000000
5.647885 25.529928 0.000000
5.647885 28.074016 0.000000
5.647885 30.618103 0.000000
5.647885 33.162191 0.000000
5.647885 35.706278 0.000000
5.647885 38.250366 0.000000
5.647885 40.794453 0.000000
5.647885 43.338541 0.000000
8.271757 10.030870 0.000000
8.271757 12.479295 0.000000
8.271757 14.927721 0.000000
8.271757 17.376146 0.000000
8.271757 19.824572 0.000000
8.271757 22.272997 0.000000
8.271757 24.721423 0.000000
8.271757 27.169848 0.000000
8.271757 29.618274 0.000000
8.271757 32.066699 0.000000
8.271757 34.515125 0.000000
8.271757 36.963550 0.000000
8.271757 39.411976 0.000000
8.271757 41.860401 0.000000
8.271757 44.308827 0.000000
10.770683 12.230445 0.000000
10.770683 14.587764 0.000000
10.770683 16.945083 0.000000
10.770683 19.302402 0.000000
10.770683 21.659720 0.000000
10.770683 24.017039 0.000000
10.770683 26.374358 0.000000
10.770683 28.731677 0.000000
10.770683 31.088996 0.000000
10.770683 33.446315 0.000000
10.770683 35.803634 0.000000
10.770683 38.160952 0.000000
10.770683 40.518271 0.000000
10.770683 42.875590 0.000000
10.770683 45.232909 0.000000
13.150613 14.325279 0.000000
13.150613 16.595829 0.000000
13.150613 18.866380 0.000000
13.150613 21.136931 0.000000
13.150613 23.407481 0.000000
13.150613 25.678032 0.000000
13.150613 27.948582 0.000000
13.150613 30.219133 0.000000
13.150613 32.489683 0.000000
13.150613 34.760234 0.000000
13.150613 37.030785 0.000000
13.150613 39.301335 0.000000
13.150613 41.571886 0.000000
13.150613 43.842436 0.000000
13.150613 46.112987 0.000000
15.417212 16.320359 0.000000
15.417212 18.508273 0.000000
15.417212 20.696187 0.000000
15.417212 22.884101 0.000000
15.417212 25.072015 0.000000
15.417212 27.259929 0.000000
15.417212 29.447843 0.000000
15.417212 31.635758 0.000000
15.417212 33.823672 0.000000
15.417212 36.011586 0.000000
15.417212 38.199500 0.000000
15.417212 40.387414 0.000000
15.417212 42.575328 0.000000
15.417212 44.763242 0.000000
15.417212 46.951157 0.000000
17.575878 18.220435 0.000000
17.575878 20.329647 0.000000
17.575878 22.438860 0.000000
17.575878 24.548073 0.000000
17.575878 26.657286 0.000000
17.575878 28.766498 0.000000
17.575878 30.875711 0.000000
17.575878 32.984924 0.000000
17.575878 35.094137 0.000000
17.575878 37.203349 0.000000
17.575878 39.312562 0.000000
17.575878 41.421775 0.000000
17.575878 43.530988 0.000000
17.575878 45.640201 0.000000
17.575878 47.749413 0.000000
19.631751 20.030031 0.000000
19.631751 22.064290 0.000000
19.631751 24.098549 0.000000
19.631751 26.132808 0.000000
19.631751 28.167067 0.000000
19.631751 30.201326 0.000000
19.631751 32.235585 0.000000
19.631751 34.269844 0.000000
19.631751 36.304103 0.000000
19.631751 38.338362 0.000000
19.631751 40.372622 0.000000
19.631751 42.406881 0.000000
19.631751 44.441140 0.000000
19.631751 46.475399 0.000000
19.631751 48.509658 0.000000
21.589725 21.753456 0.000000
21.589725 23.716330 0.000000
21.589725 25.679205 0.000000
21.589725 27.642080 0.000000
21.589725 29.604954 0.000000
21.589725 31.567829 0.000000
21.589725 33.530703 0.000000
21.589725 35.493578 0.000000
21.589725 37.456453 0.000000
21.589725 39.419327 0.000000
21.589725 41.382202 0.000000
21.589725 43.345076 0.000000
21.589725 45.307951 0.000000
21.589725 47.270826 0.000000
21.589725 49.233700 0.000000
23.454462 23.394813 0.000000
23.454462 25.289702 0.000000
23.454462 27.184592 0.000000
23.454462 29.079481 0.000000
23.454462 30.974370 0.000000
23.454462 32.869260 0.000000
23.454462 34.764149 0.000000
23.454462 36.659039 0.000000
23.454462 38.553928 0.000000
23.454462 40.448817 0.000000
23.454462 42.343707 0.000000
23.454462 44.238596 0.000000
23.454462 46.133486 0.000000
23.454462 48.028375 0.000000
23.454462 49.923265 0.000000
25.230402 24.958010 0.000000
25.230402 26.788152 0.000000
25.230402 28.618293 0.000000
25.230402 30.448435 0.000000
25.230402 32.278576 0.000000
25.230402 34.108718 0.000000
25.230402 35.938860 0.000000
25.230402 37.769001 0.000000
25.230402 39.599143 0.000000
25.230402 41.429284 0.000000
25.230402 43.259426 0.000000
25.230402 45.089568 0.000000
25.230402 46.919709 0.000000
25.230402 48.749851 0.000000
25.230402 50.579992 0.000000
26.921773 26.446769 0.000000
26.921773 28.215246 0.000000
26.921773 29.983723 0.000000
26.921773 31.752200 0.000000
26.921773 33.520677 0.000000
26.921773 35.289154 0.000000
26.921773 37.057631 0.000000
26.921773 38.826108 0.000000
26.921773 40.594585 0.000000
26.921773 42.363062 0.000000
26.921773 44.131539 0.000000
26.921773 45.900016 0.000000
26.921773 47.668493 0.000000
26.921773 49.436970 0.000000
26.921773 51.205447 0.000000
28.532603 27.864635 0.000000
28.532603 29.574384 0.000000
28.532603 31.284133 0.000000
28.532603 32.993882 0.000000
28.532603 34.703630 0.000000
28.532603 36.413379 0.000000
28.532603 38.123128 0.000000
28.532603 39.832877 0.000000
28.532603 41.542626 0.000000
28.532603 43.252375 0.000000
28.532603 44.962124 0.000000
28.532603 46.671872 0.000000
28.532603 48.381621 0.000000
28.532603 50.091370 0.000000
28.532603 51.801119 0.000000
30.066727 29.214984 0.000000
30.066727 30.868801 0.000000
30.066727 32.522618 0.000000
30.066727 34.176435 0.000000
30.066727 35.830253 0.000000
30.066727 37.484070 0.000000
30.066727 39.137887 0.000000
30.066727 40.791704 0.000000
30.066727 42.445522 0.000000
30.066727 44.099339 0.000000
30.066727 45.753156 0.000000
30.066727 47.406973 0.000000
30.066727 49.060791 0.000000
30.066727 50.714608 0.000000
30.066727 52.368425 0.000000
31.527797 30.501030 0.000000
31.527797 32.101579 0.000000
31.527797 33.702128 0.000000
31.527797 35.302677 0.000000
31.527797 36.903226 0.000000
31.527797 38.503775 0.000000
31.527797 40.104324 0.000000
31.527797 41.704873 0.000000
31.527797 43.305422 0.000000
31.527797 44.905971 0.000000
31.527797 46.506520 0.000000
31.527797 48.107070 0.000000
31.527797 49.707619 0.000000
31.527797 51.308168 0.000000
31.527797 52.908717 0.000000
32.919293 31.725836 0.000000
32.919293 33.275653 0.000000
32.919293 34.825471 0.000000
32.919293 36.375288 0.000000
32.919293 37.925106 0.000000
32.919293 39.474923 0.000000
32.919293 41.024740 0.000000
32.919293 42.574558 0.000000
32.919293 44.124375 0.000000
32.919293 45.674193 0.000000
32.919293 47.224010 0.000000
32.919293 48.773828 0.000000
32.919293 50.323645 0.000000
32.919293 51.873463 0.000000
32.919293 53.423280 0.000000
34.244527 32.892318 0.000000
34.244527 34.393819 0.000000
34.244527 35.895321 0.000000
34.244527 37.396823 0.000000
34.244527 38.898324 0.000000
34.244527 40.399826 0.000000
34.244527 41.901327 0.000000
34.244527 43.402829 0.000000
[...]
POINT_DATA 561
VECTORS U float
0.004139 0.008115 0.000000
-5.612820 25.828171 0.000000
-20.198431 27.919457 0.000000
-0.261668 0.522679 0.000000
0.018305 0.701719 0.000000
0.033313 1.314334 0.000000
0.084923 1.842960 0.000000
0.200496 2.321501 0.000000
0.375360 2.796628 0.000000
0.588140 3.308583 0.000000
0.809661 3.880603 0.000000
1.014961 4.524754 0.000000
1.184198 5.241331 0.000000
1.304505 6.025097 0.000000
1.368604 6.867147 0.000000
1.374254 7.756681 0.000000
1.322277 8.684300 0.000000
1.215512 9.639950 0.000000
1.058424 10.616002 0.000000
0.855187 11.604761 0.000000
0.611048 12.600350 0.000000
0.330307 13.597467 0.000000
0.017216 14.590609 0.000000
-0.323524 15.577406 0.000000
-0.689196 16.551937 0.000000
-1.075479 17.513399 0.000000
-1.479795 18.457300 0.000000
-1.899702 19.380317 0.000000
-2.332056 20.284342 0.000000
-2.775092 21.161585 0.000000
-3.228123 22.013018 0.000000
-3.688755 22.836503 0.000000
-4.153357 23.630695 0.000000
-4.627066 24.393214 0.000000
-5.107670 25.122798 0.000000
-6.436706 25.864024 0.000000
-7.195240 25.921339 0.000000
-7.931484 26.003055 0.000000
-8.667932 26.102852 0.000000
-9.412939 26.220341 0.000000
-10.173751 26.350722 0.000000
-10.953762 26.489822 0.000000
-11.756932 26.638462 0.000000
-12.594783 26.794233 0.000000
-13.467180 26.957599 0.000000
-14.379928 27.122651 0.000000
-15.343553 27.285147 0.000000
-16.367737 27.453549 0.000000
-17.473320 27.625409 0.000000
-18.702056 27.794152 0.000000
-19.792061 26.855262 0.000000
-19.393962 25.909395 0.000000
-18.995043 25.007620 0.000000
-18.598457 24.124348 0.000000
-18.199572 23.245147 0.000000
-17.797227 22.361708 0.000000
-17.385984 21.470770 0.000000
-16.959626 20.567142 0.000000
-16.519586 19.650962 0.000000
-16.061838 18.720180 0.000000
-15.586817 17.776200 0.000000
-15.089347 16.816494 0.000000
-14.569889 15.845486 0.000000
-14.025540 14.864615 0.000000
-13.455813 13.877741 0.000000
-12.862023 12.887888 0.000000
-12.241006 11.900078 0.000000
-11.596798 10.918589 0.000000
-10.927752 9.949068 0.000000
-10.236324 8.996579 0.000000
-9.524445 8.067377 0.000000
-8.792304 7.166019 0.000000
-8.044244 6.300949 0.000000
-7.278946 5.474627 0.000000
-6.501578 4.698434 0.000000
-5.709389 3.970974 0.000000
-4.906526 3.308052 0.000000
-4.088888 2.700892 0.000000
-3.254243 2.171756 0.000000
-2.399636 1.687447 0.000000
-1.492512 1.191835 0.000000
0.082377 -0.064319 0.000000
-0.007560 -0.046938 0.000000
0.003656 -0.019497 0.000000
-0.000521 -0.015668 0.000000
-0.004519 -0.003603 0.000000
-0.003019 -0.004571 0.000000
-0.004382 -0.000925 0.000000
-0.003307 -0.000046 0.000000
-0.003753 0.001839 0.000000
-0.002575 0.002871 0.000000
-0.002409 0.004078 0.000000
-0.001118 0.004051 0.000000
-0.000243 0.003505 0.000000
-0.000669 -0.000708 0.000000
-0.000216 -0.003701 0.000000
0.009844 0.688926 0.000000
0.017009 0.675571 0.000000
0.032198 0.645546 0.000000
0.048004 0.590699 0.000000
0.061501 0.512238 0.000000
0.069876 0.415576 0.000000
0.074171 0.307532 0.000000
0.071376 0.196920 0.000000
0.065632 0.091526 0.000000
0.049258 0.001861 0.000000
0.031043 -0.061783 0.000000
-0.008510 -0.077401 0.000000
-0.056046 -0.028741 0.000000
-0.190189 0.163255 0.000000
-0.525263 0.592009 0.000000
0.049641 1.290543 0.000000
0.092817 1.244822 0.000000
0.139867 1.166152 0.000000
0.182585 1.054576 0.000000
0.212453 0.915332 0.000000
0.228791 0.758778 0.000000
0.227143 0.595908 0.000000
0.211384 0.439842 0.000000
0.171417 0.304427 0.000000
0.116204 0.206988 0.000000
0.017525 0.165145 0.000000
-0.113500 0.212082 0.000000
-0.357212 0.387349 0.000000
-0.754402 0.713193 0.000000
-1.442700 1.213502 0.000000
0.156783 1.804786 0.000000
0.242213 1.728665 0.000000
0.319023 1.613123 0.000000
0.377966 1.465732 0.000000
0.411439 1.295809 0.000000
0.417248 1.117013 0.000000
0.392672 0.942384 0.000000
0.335117 0.789066 0.000000
0.239505 0.670602 0.000000
0.096384 0.611991 0.000000
-0.109443 0.628116 0.000000
-0.412423 0.746006 0.000000
-0.838484 0.980359 0.000000
-1.470585 1.313632 0.000000
-2.279240 1.719551 0.000000
0.327826 2.273629 0.000000
0.445163 2.178974 0.000000
0.536164 2.045887 0.000000
0.593377 1.886252 0.000000
0.610155 1.712750 0.000000
0.585918 1.540248 0.000000
0.514455 1.382724 0.000000
0.394462 1.257128 0.000000
0.214137 1.178312 0.000000
-0.036308 1.162169 0.000000
-0.374783 1.227541 0.000000
-0.833404 1.374986 0.000000
-1.424877 1.620609 0.000000
-2.177973 1.932449 0.000000
-3.074922 2.297868 0.000000
0.539760 2.743223 0.000000
0.668400 2.642715 0.000000
0.753655 2.509126 0.000000
0.788357 2.356146 0.000000
0.770317 2.197958 0.000000
0.695650 2.049263 0.000000
0.561494 1.923427 0.000000
0.359719 1.834757 0.000000
0.085720 1.797188 0.000000
-0.280684 1.818573 0.000000
-0.742865 1.912774 0.000000
-1.329615 2.072739 0.000000
-2.039838 2.298670 0.000000
-2.882894 2.582817 0.000000
-3.840617 2.918615 0.000000
0.762057 3.253356 0.000000
0.880728 3.156133 0.000000
0.939406 3.033027 0.000000
0.934993 2.898032 0.000000
0.865535 2.764932 0.000000
0.727821 2.646648 0.000000
0.518984 2.555920 0.000000
0.230425 2.501419 0.000000
-0.141291 2.496777 0.000000
-0.610856 2.542570 0.000000
-1.182982 2.648104 0.000000
-1.867884 2.810694 0.000000
-2.667434 3.027450 0.000000
-3.580933 3.292349 0.000000
-4.598819 3.606792 0.000000
0.968405 3.826393 0.000000
1.056429 3.738275 0.000000
1.072474 3.631304 0.000000
1.015302 3.519268 0.000000
0.884381 3.414113 0.000000
0.675777 3.326059 0.000000
0.388866 3.267134 0.000000
0.014853 3.241927 0.000000
-0.447610 3.260436 0.000000
-1.007859 3.324546 0.000000
-1.668722 3.435467 0.000000
-2.435124 3.593326 0.000000
-3.304413 3.798536 0.000000
-4.276282 4.049711 0.000000
-5.343365 4.347796 0.000000
1.137378 4.472865 0.000000
1.179368 4.396090 0.000000
1.140773 4.306950 0.000000
1.022731 4.217618 0.000000
0.824711 4.138851 0.000000
0.543658 4.077560 0.000000
0.179496 4.043909 0.000000
-0.273232 4.041704 0.000000
-0.816822 4.076091 0.000000
-1.454652 4.150088 0.000000
-2.188492 4.265647 0.000000
-3.020045 4.421618 0.000000
-3.947780 4.618721 0.000000
-4.969215 4.857984 0.000000
-6.081333 5.142086 0.000000
1.255286 5.192838 0.000000
1.240557 5.127361 0.000000
1.140684 5.055168 0.000000
0.957244 4.986226 0.000000
0.691082 4.929560 0.000000
0.339678 4.890741 0.000000
-0.097075 4.876707 0.000000
-0.621338 4.891783 0.000000
-1.234534 4.938984 0.000000
-1.938767 5.019834 0.000000
-2.733547 5.136328 0.000000
-3.619170 5.289491 0.000000
-4.594601 5.480260 0.000000
-5.658421 5.710184 0.000000
-6.808710 5.982081 0.000000
1.314893 5.980021 0.000000
1.237261 5.924749 0.000000
1.073204 5.867203 0.000000
0.824124 5.815278 0.000000
0.490887 5.776369 0.000000
0.073248 5.755294 0.000000
-0.429342 5.756555 0.000000
-1.017546 5.783824 0.000000
-1.691184 5.840233 0.000000
-2.450880 5.927024 0.000000
-3.296568 6.045431 0.000000
-4.227708 6.196440 0.000000
-5.243380 6.381572 0.000000
-6.343000 6.602855 0.000000
-7.526279 6.862988 0.000000
1.313848 6.825311 0.000000
1.171213 6.778342 0.000000
0.942529 6.732924 0.000000
0.629612 6.694947 0.000000
0.233262 6.669864 0.000000
-0.246100 6.662483 0.000000
-0.807759 6.676275 0.000000
-1.451980 6.713493 0.000000
-2.177991 6.776679 0.000000
-2.985354 6.867388 0.000000
-3.873308 6.986889 0.000000
-4.841758 7.136109 0.000000
-5.890778 7.316347 0.000000
-7.020163 7.529635 0.000000
-8.231063 7.778618 0.000000
1.253173 7.718039 0.000000
1.046091 7.677888 0.000000
0.754841 7.641818 0.000000
0.380960 7.614949 0.000000
-0.074069 7.601282 0.000000
-0.609623 7.604265 0.000000
-1.224252 7.627502 0.000000
-1.917297 7.672988 0.000000
-2.687781 7.742314 0.000000
-3.535257 7.836664 0.000000
-4.459122 7.957055 0.000000
-5.458890 8.104626 0.000000
-6.535160 8.280166 0.000000
-7.688922 8.485568 0.000000
-8.921784 8.723229 0.000000
1.136338 8.648158 0.000000
0.866952 8.613707 0.000000
0.516043 8.585249 0.000000
0.085392 8.566859 0.000000
-0.423632 8.562314 0.000000
-1.009682 8.574378 0.000000
-1.671388 8.605454 0.000000
-2.407391 8.657522 0.000000
-3.216332 8.732017 0.000000
-4.097162 8.829637 0.000000
-5.049880 8.950796 0.000000
-6.074837 9.096232 0.000000
-7.173044 9.267014 0.000000
-8.346103 9.464481 0.000000
-9.596686 9.690747 0.000000
0.967502 9.606221 0.000000
0.639231 9.576269 0.000000
0.232550 9.553973 0.000000
-0.250791 9.542954 0.000000
-0.809124 9.545899 0.000000
-1.440663 9.565395 0.000000
-2.143427 9.603625 0.000000
-2.916119 9.661747 0.000000
-3.757385 9.740630 0.000000
-4.666460 9.840904 0.000000
-5.643078 9.962682 0.000000
-6.687888 10.106256 0.000000
-7.802666 10.272002 0.000000
-8.990210 10.461282 0.000000
-10.253462 10.676000 0.000000
0.751788 10.584297 0.000000
0.368447 10.558565 0.000000
-0.090222 10.541455 0.000000
-0.621788 10.536216 0.000000
-1.224532 10.545898 0.000000
-1.896481 10.572220 0.000000
-2.635734 10.616660 0.000000
-3.439912 10.680246 0.000000
-4.308079 10.763463 0.000000
-5.239429 10.866214 0.000000
-6.234226 10.988139 0.000000
-7.294225 11.129019 0.000000
-8.421517 11.289353 0.000000
-9.619047 11.470031 0.000000
-10.891001 11.672705 0.000000
0.493985 11.574998 0.000000
0.059353 11.552526 0.000000
-0.446752 11.540430 0.000000
-1.022462 11.541017 0.000000
-1.665407 11.556408 0.000000
-2.373161 11.588800 0.000000
-3.143260 11.639451 0.000000
-3.974130 11.708589 0.000000
-4.864051 11.795775 0.000000
-5.812881 11.900445 0.000000
-6.821612 12.022036 0.000000
-7.891745 12.160051 0.000000
-9.026907 12.314167 0.000000
-10.230984 12.485753 0.000000
-11.507515 12.676362 0.000000
0.198949 12.572350 0.000000
-0.282872 12.553194 0.000000
-0.832746 12.545057 0.000000
-1.448491 12.550834 0.000000
-2.126999 12.572731 0.000000
-2.865924 12.611373 0.000000
-3.662802 12.667835 0.000000
-4.515149 12.741817 0.000000
-5.422296 12.832834 0.000000
-6.383637 12.939235 0.000000
-7.401454 13.059965 0.000000
-8.478032 13.194041 0.000000
-9.617509 13.341599 0.000000
-10.824005 13.503423 0.000000
-12.102292 13.681291 0.000000
-0.128556 13.571527 0.000000
-0.654147 13.555176 0.000000
-1.243999 13.551538 0.000000
-1.895625 13.562465 0.000000
-2.605751 13.589717 0.000000
-3.371979 13.634655 0.000000
-4.190424 13.697106 0.000000
-5.059920 13.776398 0.000000
-5.978787 13.870819 0.000000
-6.948865 13.978530 0.000000
-7.971092 14.097454 0.000000
-9.050261 14.226957 0.000000
-10.190965 14.366928 0.000000
-11.397350 14.518274 0.000000
-12.674375 14.683452 0.000000
-0.484955 14.566388 0.000000
-1.050280 14.553532 0.000000
-1.676610 14.554009 0.000000
-2.360271 14.570211 0.000000
-3.098585 14.604182 0.000000
-3.886910 14.655683 0.000000
-4.723077 14.724365 0.000000
-5.605031 14.808408 0.000000
-6.531640 14.905752 0.000000
-7.505121 15.013878 0.000000
-8.528691 15.130566 0.000000
-9.607037 15.254552 0.000000
-10.745500 15.385981 0.000000
-11.949445 15.526532 0.000000
-13.223854 15.678821 0.000000
-0.865780 15.555037 0.000000
-1.468094 15.544929 0.000000
-2.127072 15.549942 0.000000
-2.840062 15.572158 0.000000
-3.601253 15.611897 0.000000
-4.408644 15.670012 0.000000
-5.257817 15.745227 0.000000
-6.146879 15.834245 0.000000
-7.077367 15.934567 0.000000
-8.050304 16.042190 0.000000
-9.071465 16.155546 0.000000
-10.146034 16.273037 0.000000
-11.280272 16.395221 0.000000
-12.480647 16.524506 0.000000
-13.749350 16.663591 0.000000
-1.268279 16.531474 0.000000
-1.903841 16.525148 0.000000
-2.593251 16.535306 0.000000
-3.330339 16.563315 0.000000
-4.112609 16.610789 0.000000
-4.933773 16.676386 0.000000
-5.790849 16.757529 0.000000
-6.683860 16.851328 0.000000
-7.612325 16.953295 0.000000
-8.581839 17.059762 0.000000
-9.597478 17.168749 0.000000
-10.665992 17.278980 0.000000
-11.794929 17.391605 0.000000
-12.989176 17.509025 0.000000
-14.253025 17.635220 0.000000
-1.688805 17.495059 0.000000
-2.355677 17.492011 0.000000
-3.070944 17.506966 0.000000
-3.830641 17.542187 0.000000
-4.628268 17.597175 0.000000
-5.459084 17.670337 0.000000
-6.320481 17.758448 0.000000
-7.211678 17.856237 0.000000
-8.135121 17.959002 0.000000
-9.098224 18.063996 0.000000
-10.105103 18.167921 0.000000
-11.166420 18.270483 0.000000
-12.288150 18.373121 0.000000
-13.476184 18.478419 0.000000
-14.735663 18.592481 0.000000
-2.124705 18.440694 0.000000
-2.819660 18.441713 0.000000
-3.559024 18.463090 0.000000
-4.337060 18.505871 0.000000
-5.146279 18.569199 0.000000
-5.982658 18.650513 0.000000
-6.842651 18.744752 0.000000
-7.727564 18.845936 0.000000
-8.643893 18.949622 0.000000
-9.596561 19.051085 0.000000
-10.594568 19.149224 0.000000
-11.646600 19.244308 0.000000
-12.760220 19.337303 0.000000
-13.942683 19.431844 0.000000
-15.196430 19.533736 0.000000
-2.574219 19.367266 0.000000
-3.294701 19.372985 0.000000
-4.055403 19.400957 0.000000
-4.847126 19.452015 0.000000
-5.664099 19.524999 0.000000
-6.500197 19.614565 0.000000
-7.354471 19.714251 0.000000
-8.230765 19.817899 0.000000
-9.135584 19.920834 0.000000
-10.076516 20.019160 0.000000
-11.065097 20.112841 0.000000
-12.107655 20.200282 0.000000
-13.212336 20.284088 0.000000
-14.388457 20.368127 0.000000
-15.638297 20.459121 0.000000
-3.033971 20.271910 0.000000
-3.778727 20.282787 0.000000
-4.556588 20.318599 0.000000
-5.359517 20.380033 0.000000
-6.178632 20.462815 0.000000
-7.008805 20.559796 0.000000
-7.852754 20.663638 0.000000
-8.718167 20.768546 0.000000
-9.609838 20.869749 0.000000
-10.540445 20.966414 0.000000
-11.516799 21.056184 0.000000
-12.549074 21.138384 0.000000
-13.645791 21.214964 0.000000
-14.815606 21.289359 0.000000
-16.062332 21.369830 0.000000
-3.503723 21.153260 0.000000
-4.269251 21.169927 0.000000
-5.062322 21.214737 0.000000
-5.870319 21.287001 0.000000
-6.684949 21.379186 0.000000
-7.505593 21.483087 0.000000
-8.337144 21.590029 0.000000
-9.187190 21.694758 0.000000
-10.068124 21.795525 0.000000
-10.987934 21.890581 0.000000
-11.951900 21.977993 0.000000
-12.973967 22.057747 0.000000
-14.062181 22.130669 0.000000
-15.224727 22.198391 0.000000
-16.470972 22.269626 0.000000
-3.980360 22.007872 0.000000
-4.765398 22.031806 0.000000
-5.569452 22.088206 0.000000
-6.376452 22.172248 0.000000
-7.180611 22.273466 0.000000
-7.985851 22.380568 0.000000
-8.803658 22.488017 0.000000
-9.642018 22.593590 0.000000
-10.511442 22.695733 0.000000
-11.418510 22.791671 0.000000
-12.373882 22.880298 0.000000
-13.385249 22.961129 0.000000
-14.463139 23.032845 0.000000
-15.617949 23.096525 0.000000
-16.863608 23.159085 0.000000
-4.464187 22.835269 0.000000
-5.267167 22.868982 0.000000
-6.074202 22.938335 0.000000
-6.871431 23.033130 0.000000
-7.659681 23.138514 0.000000
-8.450176 23.247269 0.000000
-9.253477 23.355799 0.000000
-10.082648 23.463504 0.000000
-10.941546 23.568298 0.000000
-11.838455 23.668985 0.000000
-12.784201 23.764645 0.000000
-13.784574 23.850323 0.000000
-14.850448 23.924548 0.000000
-15.997736 23.987382 0.000000
-17.243325 24.045886 0.000000
-4.954973 23.633950 0.000000
-5.770537 23.680410 0.000000
-6.571097 23.764325 0.000000
-7.349398 23.864283 0.000000
-8.119755 23.969452 0.000000
-8.896954 24.078734 0.000000
-9.691577 24.190358 0.000000
-10.510353 24.302376 0.000000
-11.361590 24.414227 0.000000
-12.250849 24.524339 0.000000
-13.186299 24.629801 0.000000
-14.175244 24.725897 0.000000
-15.228707 24.810782 0.000000
-16.366336 24.880739 0.000000
-17.612052 24.938265 0.000000
-5.453544 24.403360 0.000000
-6.270815 24.468561 0.000000
-7.048240 24.557837 0.000000
-7.805083 24.656853 0.000000
-8.563592 24.761548 0.000000
-9.329973 24.872690 0.000000
-10.118187 24.988780 0.000000
-10.931280 25.111192 0.000000
-11.774413 25.234433 0.000000
-12.658550 25.357033 0.000000
-13.582199 25.477148 0.000000
-14.563335 25.591284 0.000000
-15.603008 25.695289 0.000000
-16.729223 25.781916 0.000000
-17.970271 25.847037 0.000000
-5.959892 25.150387 0.000000
-6.747060 25.221761 0.000000
-7.500938 25.307547 0.000000
-8.243005 25.403979 0.000000
-8.991967 25.510952 0.000000
-9.753857 25.629037 0.000000
-10.539038 25.756368 0.000000
-11.346164 25.889978 0.000000
-12.184098 26.027134 0.000000
-13.062375 26.167296 0.000000
-13.980036 26.308486 0.000000
-14.950351 26.446982 0.000000
-15.981482 26.579458 0.000000
-17.092597 26.696371 0.000000
-18.326316 26.788592 0.000000
CELL_DATA 1024
SCALARS P float 1
LOOKUP_TABLE default
5.742885
5.615160
5.658569
5.566602
5.945557
6.156273
6.367193
6.556118
6.926062
6.962480
7.165303
6.913933
7.086405
6.634125
6.574003
5.649504
5.430938
4.634164
3.990661
2.197235
1.510831
0.868351
-0.701348
-3.882554
-5.355807
-4.643136
-8.084366
-14.106618
-15.778061
-11.345894
-25.860441
-11.198458
5.201090
5.745163
5.652138
5.555750
6.059872
6.745291
5.836814
7.007031
5.984045
7.143328
5.682747
7.000432
5.069048
6.230562
4.180956
5.537002
2.681247
3.305305
1.520823
2.612816
-1.846000
-1.969437
-1.198093
-3.102161
-7.924554
-9.395701
-3.070616
-15.607688
-6.950433
-15.185187
-17.105312
-7.544686
4.963193
6.037948
5.671130
5.762538
6.004625
6.480040
6.084782
6.162743
6.086693
5.959090
5.605008
5.243214
4.998062
4.345227
3.706855
3.260545
2.494468
1.429546
0.656402
-0.173723
-1.269286
-1.923544
-3.508917
-5.712563
-4.061170
-4.266361
-10.331555
-7.486293
-4.863199
-9.090034
-15.579929
-9.232662
5.488777
6.128395
6.386807
6.232047
6.428806
6.516489
6.577358
6.209684
6.234697
5.695494
5.668650
5.080712
4.689146
3.825085
3.604963
2.827489
1.884266
1.243143
0.598672
-1.045457
-1.558370
-1.598093
-3.851934
-4.717828
-5.557181
-6.004334
-9.804501
-6.908736
-8.607954
-9.592637
-10.040705
-10.419060
6.509849
6.709177
7.058124
6.809628
6.954993
6.665144
6.797580
6.235709
6.226820
5.528785
5.419886
4.707458
4.292525
3.707534
3.030270
2.093777
1.493957
1.434705
-0.189169
-0.979624
-1.793148
-1.959179
-4.072374
-3.899895
-4.004834
-6.153760
-6.839832
-7.568332
-7.667946
-8.005697
-11.040886
-9.564791
7.546909
7.738541
7.707544
7.671254
7.448143
7.237618
7.034653
6.659505
6.276924
5.825375
5.388585
4.684665
4.168146
3.769046
2.990813
2.072836
1.277923
0.926576
-0.098191
-0.802103
-1.406448
-2.365267
-3.791467
-3.672330
-4.869327
-4.989577
-6.659414
-7.072595
-7.960370
-8.937134
-9.732770
-10.275072
8.472171
8.816590
8.251335
8.343325
7.865841
7.854737
7.105227
6.918836
6.324729
6.163580
5.278593
4.812743
4.043820
3.756585
2.899973
2.193953
1.659113
0.954181
-0.357147
-0.560859
-1.203029
-2.138417
-3.123462
-3.858296
-4.706417
-5.258326
-6.336117
-6.692420
-7.335493
-8.266759
-9.552186
-9.869718
9.399192
9.733311
8.894796
8.949766
8.351175
8.327368
7.442250
7.233937
6.444132
6.290454
5.444304
4.990827
4.212476
3.889295
2.602574
2.441282
1.671919
0.966841
-0.061210
-0.401636
-1.633300
-1.756997
-2.913352
-3.404045
-4.341975
-4.971839
-6.387924
-6.509845
-8.007532
-8.189472
-9.444496
-9.941055
10.207674
10.349683
9.531062
9.428584
8.731090
8.580417
7.802456
7.524396
6.686207
6.475109
5.359911
5.178869
4.470354
3.807350
2.858218
2.629106
1.480979
1.199619
0.218241
-0.429680
-1.299189
-1.882210
-3.066416
-3.306253
-4.376669
-4.879940
-5.831901
-6.465345
-7.490400
-7.995437
-9.360621
-9.742524
10.945877
10.773284
10.144209
9.910674
9.089152
8.831117
8.005975
7.757719
7.030028
6.503901
5.537156
5.435769
4.362635
4.005370
3.098669
2.530852
1.625228
1.297610
0.081615
0.020983
-1.183584
-1.509261
-2.717606
-3.171766
-4.287794
-4.795785
-5.929132
-6.523813
-7.385886
-8.185620
-9.059929
-9.717362
11.462511
11.138864
10.463453
10.269123
9.408540
8.997254
8.166228
8.036138
7.082084
6.652080
5.805299
5.372998
4.431584
4.156928
3.158466
2.780081
1.853537
1.182958
0.281450
-0.373185
-1.213165
-1.646850
-2.671633
-3.005721
-4.052185
-4.428805
-5.612231
-5.951072
-7.274248
-7.669656
-9.046126
-9.449300
11.867913
11.413669
10.735461
10.532806
9.599204
9.251424
8.376191
8.028804
7.134607
6.829867
5.987578
5.497253
4.571878
4.116037
3.101065
2.819585
1.896695
1.597724
0.599411
0.144558
-0.895081
-1.516736
-2.532975
-3.071697
-4.201442
-4.651226
-5.788954
-6.122379
-7.212423
-7.762278
-8.733344
-9.364885
12.047302
11.759974
10.806309
10.571527
9.680812
9.402559
8.582341
8.169023
7.120490
6.852419
5.886676
5.589914
4.760154
4.228295
3.337663
2.738755
1.747560
1.239063
0.368193
-0.063098
-0.930977
-1.315447
-2.245922
-2.712115
-3.606627
-4.247541