# vtk DataFile Version 2.0
cantilever_tri3_mix
ASCII
DATASET POLYDATA
POINTS 561 float
0.000000 0.000000 0.000000
48.000000 44.000000 0.000000
48.000000 60.000000 0.000000
0.000000 44.000000 0.000000
2.892819 2.651751 0.000000
5.647885 5.177228 0.000000
8.271757 7.582444 0.000000
10.770683 9.873126 0.000000
13.150613 12.054728 0.000000
15.417212 14.132444 0.000000
17.575878 16.111222 0.000000
19.631751 17.995772 0.000000
21.589725 19.790581 0.000000
23.454462 21.499923 0.000000
25.230402 23.127868 0.000000
26.921773 24.678292 0.000000
28.532603 26.154886 0.000000
30.066727 27.561166 0.000000
31.527797 28.900481 0.000000
32.919293 30.176018 0.000000
34.244527 31.390816 0.000000
35.506654 32.547766 0.000000
36.708680 33.649623 0.000000
37.853467 34.699011 0.000000
38.943740 35.698428 0.000000
39.982095 36.650254 0.000000
40.971005 37.556755 0.000000
41.912824 38.420089 0.000000
42.809794 39.242312 0.000000
43.664052 40.025381 0.000000
44.477630 40.771161 0.000000
45.252467 41.481428 0.000000
45.990407 42.157873 0.000000
46.693207 42.802106 0.000000
47.362540 43.415662 0.000000
48.000000 45.000000 0.000000
48.000000 46.000000 0.000000
48.000000 47.000000 0.000000
48.000000 48.000000 0.000000
48.000000 49.000000 0.000000
48.000000 50.000000 0.000000
48.000000 51.000000 0.000000
48.000000 52.000000 0.000000
48.000000 53.000000 0.000000
48.000000 54.000000 0.000000
48.000000 55.000000 0.000000
48.000000 56.000000 0.000000
48.000000 57.000000 0.000000
48.000000 58.000000 0.000000
48.000000 59.000000 0.000000
47.362540 59.787513 0.000000
46.693207 59.564402 0.000000
45.990407 59.330136 0.000000
45.252467 59.084156 0.000000
44.477630 58.825877 0.000000
43.664052 58.554684 0.000000
42.809794 58.269931 0.000000
41.912824 57.970941 0.000000
40.971005 57.657002 0.000000
39.982095 57.327365 0.000000
38.943740 56.981247 0.000000
37.853467 56.617822 0.000000
36.708680 56.236227 0.000000
35.506654 55.835551 0.000000
34.244527 55.414842 0.000000
32.919293 54.973098 0.000000
31.527797 54.509266 0.000000
30.066727 54.022242 0.000000
28.532603 53.510868 0.000000
26.921773 52.973924 0.000000
25.230402 52.410134 0.000000
23.454462 51.818154 0.000000
21.589725 51.196575 0.000000
19.631751 50.543917 0.000000
17.575878 49.858626 0.000000
15.417212 49.139071 0.000000
13.150613 48.383538 0.000000
10.770683 47.590228 0.000000
8.271757 46.757252 0.000000
5.647885 45.882628 0.000000
2.892819 44.964273 0.000000
0.000000 41.250000 0.000000
0.000000 38.500000 0.000000
0.000000 35.750000 0.000000
0.000000 33.000000 0.000000
0.000000 30.250000 0.000000
0.000000 27.500000 0.000000
0.000000 24.750000 0.000000
0.000000 22.000000 0.000000
0.000000 19.250000 0.000000
0.000000 16.500000 0.000000
0.000000 13.750000 0.000000
0.000000 11.000000 0.000000
0.000000 8.250000 0.000000
0.000000 5.500000 0.000000
0.000000 2.750000 0.000000
2.892819 5.296284 0.000000
2.892819 7.940816 0.000000
2.892819 10.585349 0.000000
2.892819 13.229881 0.000000
2.892819 15.874414 0.000000
2.892819 18.518947 0.000000
2.892819 21.163479 0.000000
2.892819 23.808012 0.000000
2.892819 26.452545 0.000000
2.892819 29.097077 0.000000
2.892819 31.741610 0.000000
2.892819 34.386143 0.000000
2.892819 37.030675 0.000000
2.892819 39.675208 0.000000
2.892819 42.319740 0.000000
5.647885 7.721315 0.000000
5.647885 10.265403 0.000000
5.647885 12.809490 0.000000
5.647885 15.353578 0.000000
5.647885 17.897666 0.000000
5.647885 20.441753 0.000000
5.647885 22.985841 0.000000
5.647885 25.529928 0.000000
5.647885 28.074016 0.000000
5.647885 30.618103 0.000000
5.647885 33.162191 0.000000
5.647885 35.706278 0.000000
5.647885 38.250366 0.000000
5.647885 40.794453 0.000000
5.647885 43.338541 0.000000
8.271757 10.030870 0.000000
8.271757 12.479295 0.000000
8.271757 14.927721 0.000000
8.271757 17.376146 0.000000
8.271757 19.824572 0.000000
8.271757 22.272997 0.000000
8.271757 24.721423 0.000000
8.271757 27.169848 0.000000
8.271757 29.618274 0.000000
8.271757 32.066699 0.000000
8.271757 34.515125 0.000000
8.271757 36.963550 0.000000
8.271757 39.411976 0.000000
8.271757 41.860401 0.000000
8.271757 44.308827 0.000000
10.770683 12.230445 0.000000
10.770683 14.587764 0.000000
10.770683 16.945083 0.000000
10.770683 19.302402 0.000000
10.770683 21.659720 0.000000
10.770683 24.017039 0.000000
10.770683 26.374358 0.000000
10.770683 28.731677 0.000000
10.770683 31.088996 0.000000
10.770683 33.446315 0.000000
10.770683 35.803634 0.000000
10.770683 38.160952 0.000000
10.770683 40.518271 0.000000
10.770683 42.875590 0.000000
10.770683 45.232909 0.000000
13.150613 14.325279 0.000000
13.150613 16.595829 0.000000
13.150613 18.866380 0.000000
13.150613 21.136931 0.000000
13.150613 23.407481 0.000000
13.150613 25.678032 0.000000
13.150613 27.948582 0.000000
13.150613 30.219133 0.000000
13.150613 32.489683 0.000000
13.150613 34.760234 0.000000
13.150613 37.030785 0.000000
13.150613 39.301335 0.000000
13.150613 41.571886 0.000000
13.150613 43.842436 0.000000
13.150613 46.112987 0.000000
15.417212 16.320359 0.000000
15.417212 18.508273 0.000000
15.417212 20.696187 0.000000
15.417212 22.884101 0.000000
15.417212 25.072015 0.000000
15.417212 27.259929 0.000000
15.417212 29.447843 0.000000
15.417212 31.635758 0.000000
15.417212 33.823672 0.000000
15.417212 36.011586 0.000000
15.417212 38.199500 0.000000
15.417212 40.387414 0.000000
15.417212 42.575328 0.000000
15.417212 44.763242 0.000000
15.417212 46.951157 0.000000
17.575878 18.220435 0.000000
17.575878 20.329647 0.000000
17.575878 22.438860 0.000000
17.575878 24.548073 0.000000
17.575878 26.657286 0.000000
17.575878 28.766498 0.000000
17.575878 30.875711 0.000000
17.575878 32.984924 0.000000
17.575878 35.094137 0.000000
17.575878 37.203349 0.000000
17.575878 39.312562 0.000000
17.575878 41.421775 0.000000
17.575878 43.530988 0.000000
17.575878 45.640201 0.000000
17.575878 47.749413 0.000000
19.631751 20.030031 0.000000
19.631751 22.064290 0.000000
19.631751 24.098549 0.000000
19.631751 26.132808 0.000000
19.631751 28.167067 0.000000
19.631751 30.201326 0.000000
19.631751 32.235585 0.000000
19.631751 34.269844 0.000000
19.631751 36.304103 0.000000
19.631751 38.338362 0.000000
19.631751 40.372622 0.000000
19.631751 42.406881 0.000000
19.631751 44.441140 0.000000
19.631751 46.475399 0.000000
19.631751 48.509658 0.000000
21.589725 21.753456 0.000000
21.589725 23.716330 0.000000
21.589725 25.679205 0.000000
21.589725 27.642080 0.000000
21.589725 29.604954 0.000000
21.589725 31.567829 0.000000
21.589725 33.530703 0.000000
21.589725 35.493578 0.000000
21.589725 37.456453 0.000000
21.589725 39.419327 0.000000
21.589725 41.382202 0.000000
21.589725 43.345076 0.000000
21.589725 45.307951 0.000000
21.589725 47.270826 0.000000
21.589725 49.233700 0.000000
23.454462 23.394813 0.000000
23.454462 25.289702 0.000000
23.454462 27.184592 0.000000
23.454462 29.079481 0.000000
23.454462 30.974370 0.000000
23.454462 32.869260 0.000000
23.454462 34.764149 0.000000
23.454462 36.659039 0.000000
23.454462 38.553928 0.000000
23.454462 40.448817 0.000000
23.454462 42.343707 0.000000
23.454462 44.238596 0.000000
23.454462 46.133486 0.000000
23.454462 48.028375 0.000000
23.454462 49.923265 0.000000
25.230402 24.958010 0.000000
25.230402 26.788152 0.000000
25.230402 28.618293 0.000000
25.230402 30.448435 0.000000
25.230402 32.278576 0.000000
25.230402 34.108718 0.000000
25.230402 35.938860 0.000000
25.230402 37.769001 0.000000
25.230402 39.599143 0.000000
25.230402 41.429284 0.000000
25.230402 43.259426 0.000000
25.230402 45.089568 0.000000
25.230402 46.919709 0.000000
25.230402 48.749851 0.000000
25.230402 50.579992 0.000000
26.921773 26.446769 0.000000
26.921773 28.215246 0.000000
26.921773 29.983723 0.000000
26.921773 31.752200 0.000000
26.921773 33.520677 0.000000
26.921773 35.289154 0.000000
26.921773 37.057631 0.000000
26.921773 38.826108 0.000000
26.921773 40.594585 0.000000
26.921773 42.363062 0.000000
26.921773 44.131539 0.000000
26.921773 45.900016 0.000000
26.921773 47.668493 0.000000
26.921773 49.436970 0.000000
26.921773 51.205447 0.000000
28.532603 27.864635 0.000000
28.532603 29.574384 0.000000
28.532603 31.284133 0.000000
28.532603 32.993882 0.000000
28.532603 34.703630 0.000000
28.532603 36.413379 0.000000
28.532603 38.123128 0.000000
28.532603 39.832877 0.000000
28.532603 41.542626 0.000000
28.532603 43.252375 0.000000
28.532603 44.962124 0.000000
28.532603 46.671872 0.000000
28.532603 48.381621 0.000000
28.532603 50.091370 0.000000
28.532603 51.801119 0.000000
30.066727 29.214984 0.000000
30.066727 30.868801 0.000000
30.066727 32.522618 0.000000
30.066727 34.176435 0.000000
30.066727 35.830253 0.000000
30.066727 37.484070 0.000000
30.066727 39.137887 0.000000
30.066727 40.791704 0.000000
30.066727 42.445522 0.000000
30.066727 44.099339 0.000000
30.066727 45.753156 0.000000
30.066727 47.406973 0.000000
30.066727 49.060791 0.000000
30.066727 50.714608 0.000000
30.066727 52.368425 0.000000
31.527797 30.501030 0.000000
31.527797 32.101579 0.000000
31.527797 33.702128 0.000000
31.527797 35.302677 0.000000
31.527797 36.903226 0.000000
31.527797 38.503775 0.000000
31.527797 40.104324 0.000000
31.527797 41.704873 0.000000
31.527797 43.305422 0.000000
31.527797 44.905971 0.000000
31.527797 46.506520 0.000000
31.527797 48.107070 0.000000
31.527797 49.707619 0.000000
31.527797 51.308168 0.000000
31.527797 52.908717 0.000000
32.919293 31.725836 0.000000
32.919293 33.275653 0.000000
32.919293 34.825471 0.000000
32.919293 36.375288 0.000000
32.919293 37.925106 0.000000
32.919293 39.474923 0.000000
32.919293 41.024740 0.000000
32.919293 42.574558 0.000000
32.919293 44.124375 0.000000
32.919293 45.674193 0.000000
32.919293 47.224010 0.000000
32.919293 48.773828 0.000000
32.919293 50.323645 0.000000
32.919293 51.873463 0.000000
32.919293 53.423280 0.000000
34.244527 32.892318 0.000000
34.244527 34.393819 0.000000
34.244527 35.895321 0.000000
34.244527 37.396823 0.000000
34.244527 38.898324 0.000000
34.244527 40.399826 0.000000
34.244527 41.901327 0.000000
34.244527 43.402829 0.000000
[...]
POINT_DATA 561
VECTORS U float
0.001253 0.010888 0.000000
-5.529247 25.546585 0.000000
-19.930563 27.604711 0.000000
-0.041206 0.542970 0.000000
0.011354 0.696736 0.000000
0.013031 1.303183 0.000000
0.075785 1.821461 0.000000
0.177915 2.311752 0.000000
0.340892 2.793750 0.000000
0.563170 3.274143 0.000000
0.769665 3.856103 0.000000
0.986055 4.473568 0.000000
1.156918 5.172612 0.000000
1.281431 5.947649 0.000000
1.346174 6.775340 0.000000
1.357541 7.652956 0.000000
1.310415 8.566348 0.000000
1.208456 9.516609 0.000000
1.054718 10.479414 0.000000
0.856009 11.453131 0.000000
0.620326 12.446508 0.000000
0.344155 13.428080 0.000000
0.027927 14.416284 0.000000
-0.300062 15.386563 0.000000
-0.656309 16.349230 0.000000
-1.044366 17.310164 0.000000
-1.445661 18.248048 0.000000
-1.856468 19.155125 0.000000
-2.277889 20.040035 0.000000
-2.722346 20.915270 0.000000
-3.174669 21.769677 0.000000
-3.620965 22.591723 0.000000
-4.080478 23.370657 0.000000
-4.552784 24.114846 0.000000
-5.036965 24.840145 0.000000
-6.342766 25.575645 0.000000
-7.091108 25.634781 0.000000
-7.824862 25.718473 0.000000
-8.545150 25.819740 0.000000
-9.282049 25.932720 0.000000
-10.034814 26.059980 0.000000
-10.806761 26.202612 0.000000
-11.601870 26.349793 0.000000
-12.426126 26.503565 0.000000
-13.289882 26.664259 0.000000
-14.190916 26.824718 0.000000
-15.147841 26.991209 0.000000
-16.156146 27.162444 0.000000
-17.253664 27.332726 0.000000
-18.470633 27.489190 0.000000
-19.536323 26.570358 0.000000
-19.151042 25.630598 0.000000
-18.762747 24.732137 0.000000
-18.370592 23.858987 0.000000
-17.969886 22.986636 0.000000
-17.566373 22.110110 0.000000
-17.159580 21.230768 0.000000
-16.739991 20.337660 0.000000
-16.304153 19.427845 0.000000
-15.852919 18.506799 0.000000
-15.379659 17.567834 0.000000
-14.885415 16.619677 0.000000
-14.370106 15.658734 0.000000
-13.830882 14.689674 0.000000
-13.269003 13.710622 0.000000
-12.676561 12.731058 0.000000
-12.060957 11.754189 0.000000
-11.425747 10.784928 0.000000
-10.762237 9.824596 0.000000
-10.072592 8.881022 0.000000
-9.368722 7.965436 0.000000
-8.643949 7.082172 0.000000
-7.903655 6.219472 0.000000
-7.154491 5.402081 0.000000
-6.376231 4.637444 0.000000
-5.590506 3.923691 0.000000
-4.805687 3.277765 0.000000
-3.994241 2.657197 0.000000
-3.151479 2.102419 0.000000
-2.290917 1.651229 0.000000
-1.312256 1.167220 0.000000
0.006007 -0.064558 0.000000
0.000123 -0.080767 0.000000
0.003052 -0.013375 0.000000
0.002897 -0.023218 0.000000
-0.003556 -0.004640 0.000000
0.000345 0.001823 0.000000
-0.003103 -0.004970 0.000000
0.000246 0.003093 0.000000
-0.002900 -0.004371 0.000000
-0.000255 0.002186 0.000000
-0.000724 0.001212 0.000000
0.000962 0.004238 0.000000
0.000363 0.002317 0.000000
0.000077 -0.001274 0.000000
0.000590 -0.005434 0.000000
-0.001415 0.688040 0.000000
0.010130 0.676754 0.000000
0.023379 0.645013 0.000000
0.042613 0.588757 0.000000
0.052737 0.507262 0.000000
0.064760 0.412612 0.000000
0.062821 0.302506 0.000000
0.074188 0.190534 0.000000
0.056381 0.079838 0.000000
0.057141 -0.011753 0.000000
0.030667 -0.076786 0.000000
-0.006182 -0.095461 0.000000
-0.046916 -0.051586 0.000000
-0.151385 0.155652 0.000000
-0.496254 0.523191 0.000000
0.038334 1.275379 0.000000
0.078730 1.227479 0.000000
0.126961 1.150281 0.000000
0.166070 1.042892 0.000000
0.195877 0.905997 0.000000
0.215295 0.748630 0.000000
0.217531 0.584174 0.000000
0.208025 0.432940 0.000000
0.168710 0.291168 0.000000
0.127008 0.193109 0.000000
0.026437 0.139921 0.000000
-0.078039 0.172035 0.000000
-0.340774 0.324418 0.000000
-0.682171 0.667026 0.000000
-1.356075 1.154460 0.000000
0.136156 1.777275 0.000000
0.215241 1.705487 0.000000
0.290934 1.595746 0.000000
0.354173 1.449703 0.000000
0.394529 1.277392 0.000000
0.399725 1.096966 0.000000
0.380970 0.921354 0.000000
0.333816 0.766248 0.000000
0.246898 0.644921 0.000000
0.118691 0.583520 0.000000
-0.080106 0.593489 0.000000
-0.351419 0.715919 0.000000
-0.789828 0.912574 0.000000
-1.376243 1.242023 0.000000
-2.176607 1.646675 0.000000
0.294022 2.258549 0.000000
0.409756 2.157884 0.000000
0.503360 2.023014 0.000000
0.569684 1.865175 0.000000
0.589442 1.690336 0.000000
0.572300 1.512117 0.000000
0.508574 1.348907 0.000000
0.398092 1.221690 0.000000
0.229550 1.139341 0.000000
-0.001077 1.123505 0.000000
-0.328456 1.174467 0.000000
-0.745145 1.326733 0.000000
-1.338011 1.557281 0.000000
-2.069112 1.871284 0.000000
-2.971904 2.248591 0.000000
0.510917 2.728611 0.000000
0.631498 2.612050 0.000000
0.722118 2.474774 0.000000
0.765823 2.317583 0.000000
0.754516 2.154351 0.000000
0.690051 2.000876 0.000000
0.564820 1.865497 0.000000
0.378222 1.766563 0.000000
0.114307 1.719089 0.000000
-0.225477 1.738867 0.000000
-0.679399 1.828398 0.000000
-1.240846 2.006326 0.000000
-1.949286 2.248253 0.000000
-2.778040 2.549495 0.000000
-3.732837 2.889577 0.000000
0.730702 3.215008 0.000000
0.841646 3.111511 0.000000
0.913975 2.986274 0.000000
0.916268 2.844945 0.000000
0.857402 2.705451 0.000000
0.733346 2.581859 0.000000
0.535405 2.487271 0.000000
0.261550 2.432008 0.000000
-0.095479 2.419751 0.000000
-0.548879 2.468928 0.000000
-1.111950 2.571868 0.000000
-1.783644 2.737472 0.000000
-2.577637 2.957214 0.000000
-3.471544 3.228865 0.000000
-4.492244 3.554910 0.000000
0.932139 3.794445 0.000000
1.027575 3.690055 0.000000
1.055557 3.573776 0.000000
1.007134 3.450065 0.000000
0.885666 3.337457 0.000000
0.687258 3.244887 0.000000
0.413417 3.181125 0.000000
0.056846 3.155079 0.000000
-0.394891 3.175919 0.000000
-0.938956 3.244294 0.000000
-1.589556 3.359180 0.000000
-2.346480 3.522211 0.000000
-3.205697 3.730350 0.000000
-4.166940 3.987597 0.000000
-5.231268 4.285070 0.000000
1.113347 4.409366 0.000000
1.161737 4.322971 0.000000
1.133361 4.228435 0.000000
1.021167 4.134531 0.000000
0.835745 4.050222 0.000000
0.564686 3.983682 0.000000
0.213637 3.946906 0.000000
-0.229521 3.946504 0.000000
-0.759078 3.980170 0.000000
-1.384400 4.057773 0.000000
-2.107525 4.176386 0.000000
-2.927532 4.335552 0.000000
-3.845019 4.539680 0.000000
-4.851765 4.783786 0.000000
-5.957271 5.070661 0.000000
1.235042 5.120347 0.000000
1.226622 5.049375 0.000000
1.134273 4.975106 0.000000
0.963993 4.901486 0.000000
0.707260 4.841992 0.000000
0.369564 4.799727 0.000000
-0.058404 4.781233 0.000000
-0.566490 4.791658 0.000000
-1.170696 4.836660 0.000000
-1.862892 4.918979 0.000000
-2.645888 5.036988 0.000000
-3.524875 5.193370 0.000000
-4.485215 5.386320 0.000000
-5.537651 5.622634 0.000000
-6.677703 5.901073 0.000000
1.297527 5.895669 0.000000
1.226731 5.832653 0.000000
1.076246 5.767193 0.000000
0.834980 5.710421 0.000000
0.516658 5.666421 0.000000
0.109268 5.642432 0.000000
-0.380776 5.641844 0.000000
-0.959090 5.672209 0.000000
-1.624440 5.730566 0.000000
-2.370512 5.821152 0.000000
-3.206870 5.942693 0.000000
-4.123497 6.094298 0.000000
-5.129176 6.281390 0.000000
-6.218525 6.507365 0.000000
-7.388143 6.771851 0.000000
1.301965 6.728655 0.000000
1.171414 6.674023 0.000000
0.949553 6.622945 0.000000
0.650318 6.579860 0.000000
0.262734 6.553191 0.000000
-0.204456 6.544837 0.000000
-0.758044 6.557875 0.000000
-1.389475 6.595151 0.000000
-2.105647 6.656417 0.000000
-2.900332 6.747401 0.000000
-3.776150 6.867410 0.000000
-4.731714 7.019014 0.000000
-5.772525 7.202818 0.000000
-6.888212 7.417802 0.000000
-8.088706 7.671373 0.000000
1.247834 7.610142 0.000000
1.049407 7.567672 0.000000
0.769305 7.527784 0.000000
0.403844 7.499276 0.000000
-0.039618 7.482971 0.000000
-0.563443 7.483934 0.000000
-1.167420 7.503295 0.000000
-1.848588 7.545956 0.000000
-2.607821 7.612176 0.000000
-3.444299 7.706808 0.000000
-4.356059 7.827955 0.000000
-5.346265 7.979326 0.000000
-6.407756 8.155892 0.000000
-7.551707 8.364824 0.000000
-8.774054 8.605213 0.000000
1.133400 8.525902 0.000000
0.875452 8.487256 0.000000
0.533605 8.454237 0.000000
0.115722 8.431094 0.000000
-0.382861 8.423285 0.000000
-0.958616 8.433171 0.000000
-1.609005 8.464191 0.000000
-2.331826 8.518153 0.000000
-3.133279 8.593655 0.000000
-3.998770 8.691585 0.000000
-4.943515 8.813608 0.000000
-5.954232 8.959841 0.000000
-7.041824 9.132554 0.000000
-8.202459 9.333406 0.000000
-9.439962 9.561429 0.000000
0.969214 9.476965 0.000000
0.652905 9.442922 0.000000
0.257451 9.416753 0.000000
-0.217129 9.403029 0.000000
-0.762639 9.404020 0.000000
-1.383818 9.421173 0.000000
-2.076779 9.456795 0.000000
-2.837528 9.514534 0.000000
-3.666378 9.591482 0.000000
-4.564127 9.692449 0.000000
-5.529702 9.813397 0.000000
-6.560379 9.958090 0.000000
-7.666974 10.125947 0.000000
-8.839200 10.317589 0.000000
-10.091959 10.537295 0.000000
0.761331 10.444055 0.000000
0.385967 10.414267 0.000000
-0.062121 10.394969 0.000000
-0.581642 10.387730 0.000000
-1.173808 10.394669 0.000000
-1.833988 10.418069 0.000000
-2.562592 10.460081 0.000000
-3.354309 10.520985 0.000000
-4.211333 10.604352 0.000000
-5.131413 10.707071 0.000000
-6.114133 10.829276 0.000000
-7.163470 10.973050 0.000000
-8.278549 11.134122 0.000000
-9.465013 11.318475 0.000000
-10.725153 11.524695 0.000000
0.505902 11.420863 0.000000
0.082804 11.394267 0.000000
-0.414255 11.377834 0.000000
-0.977005 11.376619 0.000000
-1.608670 11.390865 0.000000
-2.306163 11.423133 0.000000
-3.062102 11.471869 0.000000
-3.885275 11.540750 0.000000
-4.761711 11.628063 0.000000
-5.698914 11.732409 0.000000
-6.697645 11.855465 0.000000
-7.754486 11.994031 0.000000
-8.878794 12.149476 0.000000
-10.071988 12.323531 0.000000
-11.335342 12.515238 0.000000
0.216831 12.410566 0.000000
-0.255710 12.387714 0.000000
-0.793855 12.376574 0.000000
-1.398535 12.379266 0.000000
-2.066804 12.399569 0.000000
-2.791353 12.435961 0.000000
-3.579415 12.491779 0.000000
-4.419704 12.565342 0.000000
-5.313833 12.655740 0.000000
-6.266348 12.763230 0.000000
-7.270915 12.883794 0.000000
-8.335442 13.019452 0.000000
-9.465271 13.168575 0.000000
-10.657142 13.331083 0.000000
-11.925012 13.511450 0.000000
-0.107041 13.401334 0.000000
-0.620961 13.381817 0.000000
-1.198907 13.373495 0.000000
-1.841761 13.381461 0.000000
-2.537701 13.405650 0.000000
-3.292999 13.448798 0.000000
-4.102564 13.510460 0.000000
-4.957968 13.588466 0.000000
-5.867544 13.682466 0.000000
-6.824566 13.790086 0.000000
-7.836171 13.909454 0.000000
-8.903825 14.040863 0.000000
-10.032258 14.182587 0.000000
-11.226646 14.337137 0.000000
-12.492068 14.505589 0.000000
-0.457199 14.390397 0.000000
-1.009230 14.371826 0.000000
-1.627440 14.368930 0.000000
-2.298368 14.381110 0.000000
-3.024535 14.412900 0.000000
-3.805673 14.463312 0.000000
-4.627549 14.529927 0.000000
-5.497678 14.613805 0.000000
-6.416027 14.711217 0.000000
-7.375459 14.819379 0.000000
-8.388640 14.936008 0.000000
-9.456276 15.060711 0.000000
-10.581672 15.192451 0.000000
-11.775136 15.334286 0.000000
-13.036472 15.488524 0.000000
-0.829259 15.357512 0.000000
-1.425038 15.346790 0.000000
-2.071295 15.350670 0.000000
-2.772545 15.371653 0.000000
-3.525801 15.411842 0.000000
-4.319393 15.468494 0.000000
-5.157429 15.541074 0.000000
-6.036918 15.630081 0.000000
-6.954698 15.729586 0.000000
-7.916234 15.838341 0.000000
-8.927063 15.951619 0.000000
-9.988815 16.069856 0.000000
-11.111552 16.193121 0.000000
-12.301411 16.323684 0.000000
-13.558833 16.465112 0.000000
-1.232197 16.325893 0.000000
-1.856012 16.318480 0.000000
-2.532816 16.327164 0.000000
-3.260906 16.354615 0.000000
-4.031355 16.400131 0.000000
-4.837052 16.463725 0.000000
-5.686863 16.544727 0.000000
-6.569042 16.638124 0.000000
-7.485645 16.740123 0.000000
-8.442919 16.846657 0.000000
-9.449173 16.956692 0.000000
-10.504069 17.067962 0.000000
-11.621191 17.181159 0.000000
-12.805779 17.299850 0.000000
-14.056362 17.426339 0.000000
-1.648693 17.288608 0.000000
-2.300510 17.282014 0.000000
-3.006975 17.293063 0.000000
-3.755317 17.325009 0.000000
-4.538152 17.377447 0.000000
-5.361717 17.450227 0.000000
-6.211980 17.538669 0.000000
-7.091405 17.635744 0.000000
-8.002619 17.737403 0.000000
-8.956318 17.842241 0.000000
-9.951092 17.946618 0.000000
-10.999934 18.049920 0.000000
-12.111655 18.153346 0.000000
-13.286805 18.260719 0.000000
-14.534461 18.377368 0.000000
-2.074740 18.227996 0.000000
-2.758465 18.222787 0.000000
-3.488925 18.240679 0.000000
-4.254614 18.280310 0.000000
-5.052449 18.342597 0.000000
-5.881321 18.422709 0.000000
-6.728840 18.515982 0.000000
-7.601432 18.615770 0.000000
-8.507618 18.719263 0.000000
-9.451468 18.822044 0.000000
-10.435483 18.920844 0.000000
-11.475382 19.015899 0.000000
-12.580996 19.109891 0.000000
-13.749161 19.205330 0.000000
-14.991655 19.308672 0.000000
-2.513941 19.136464 0.000000
-3.231627 19.139617 0.000000
-3.979164 19.167498 0.000000
-4.759130 19.218606 0.000000
-5.568304 19.291638 0.000000
-6.393803 19.380731 0.000000
-7.234940 19.479373 0.000000
-8.099879 19.582676 0.000000
-8.996734 19.685352 0.000000
-9.926143 19.782657 0.000000
-10.901219 19.875138 0.000000
-11.933580 19.963955 0.000000
-13.028074 20.048544 0.000000
-14.191354 20.132929 0.000000
-15.430098 20.225196 0.000000
-2.975918 20.028651 0.000000
-3.710103 20.038950 0.000000
-4.475904 20.074198 0.000000
-5.269490 20.135410 0.000000
-6.079809 20.218072 0.000000
-6.896027 20.315559 0.000000
-7.728967 20.419769 0.000000
-8.584792 20.524746 0.000000
-9.466424 20.625169 0.000000
-10.382992 20.719999 0.000000
-11.349570 20.809509 0.000000
-12.373578 20.893498 0.000000
-13.456689 20.970555 0.000000
-14.614554 21.046273 0.000000
-15.852733 21.128541 0.000000
-3.442938 20.908150 0.000000
-4.195658 20.923564 0.000000
-4.977425 20.967290 0.000000
-5.776465 21.037709 0.000000
-6.581330 21.128461 0.000000
-7.388642 21.231200 0.000000
-8.209038 21.338399 0.000000
-9.050582 21.443684 0.000000
-9.918963 21.543441 0.000000
-10.826482 21.637801 0.000000
-11.783663 21.726407 0.000000
-12.793831 21.806853 0.000000
-13.869106 21.879125 0.000000
-15.020950 21.946899 0.000000
-16.256579 22.017097 0.000000
-3.913034 21.759706 0.000000
-4.685817 21.781871 0.000000
-5.480283 21.836212 0.000000
-6.278523 21.917880 0.000000
-7.069118 22.016690 0.000000
-7.865583 22.123572 0.000000
-8.673988 22.231735 0.000000
-9.499888 22.336699 0.000000
-10.356499 22.437004 0.000000
-11.256209 22.533647 0.000000
-12.203287 22.622863 0.000000
-13.199584 22.701978 0.000000
-14.265801 22.773126 0.000000
-15.410535 22.836204 0.000000
-16.644519 22.898601 0.000000
-4.390291 22.580989 0.000000
-5.182175 22.610748 0.000000
-5.980189 22.678705 0.000000
-6.767212 22.770920 0.000000
-7.544862 22.875197 0.000000
-8.325855 22.982912 0.000000
-9.119924 23.090958 0.000000
-9.935135 23.198616 0.000000
-10.785395 23.304047 0.000000
-11.674082 23.405836 0.000000
-12.607128 23.498344 0.000000
-13.596085 23.582440 0.000000
-14.650319 23.657112 0.000000
-15.786384 23.721268 0.000000
-17.021095 23.780350 0.000000
-4.873523 23.369794 0.000000
-5.682025 23.414774 0.000000
-6.471623 23.497008 0.000000
-7.239372 23.594556 0.000000
-8.000942 23.699147 0.000000
-8.769827 23.806425 0.000000
-9.553593 23.917641 0.000000
-10.360098 24.030715 0.000000
-11.204464 24.143853 0.000000
-12.082213 24.252501 0.000000
-13.003223 24.354287 0.000000
-13.984239 24.450636 0.000000
-15.027810 24.536608 0.000000
-16.152195 24.607517 0.000000
-17.386573 24.665815 0.000000
-5.369962 24.131044 0.000000
-6.176677 24.195142 0.000000
-6.942898 24.282933 0.000000
-7.692575 24.382197 0.000000
-8.439633 24.485792 0.000000
-9.199656 24.594550 0.000000
-9.975843 24.710933 0.000000
-10.780129 24.831435 0.000000
-11.614237 24.954096 0.000000
-12.483311 25.075947 0.000000
-13.399952 25.196454 0.000000
-14.368792 25.311231 0.000000
-15.400074 25.414703 0.000000
-16.512924 25.499895 0.000000
-17.742739 25.566592 0.000000
-5.869917 24.870472 0.000000
-6.647121 24.940436 0.000000
-7.394534 25.026576 0.000000
-8.125382 25.125976 0.000000
-8.864552 25.231336 0.000000
-9.621060 25.346594 0.000000
-10.390946 25.472263 0.000000
-11.193558 25.605269 0.000000
-12.021035 25.742090 0.000000
-12.884550 25.882006 0.000000
-13.796125 26.023618 0.000000
-14.755137 26.159554 0.000000
-15.772716 26.288931 0.000000
-16.873989 26.403006 0.000000
-18.100582 26.498405 0.000000
CELL_DATA 1024
SCALARS P float 1
LOOKUP_TABLE default
5.545775
7.678021
3.606098
7.573279
5.752639
7.519356
4.203418
8.730014
7.664460
1.578072
7.599958
7.822965
10.010994
-3.491537
8.087612
9.203819
7.165077
-6.081209
7.378487
7.676970
-0.948760
-7.398499
11.575894
-1.452422
-23.796242
14.630038
6.316551
-25.081629
-38.629095
5.500133
-14.021205
-27.774297
1.829647
7.747181
7.719245
-14.404262
16.585029
-29.004074
32.292440
-68.852835
48.687917
-49.841817
23.360132
-46.104846
52.469149
-59.763579
9.412867
-14.840754
42.876833
-61.545662
-9.500655
52.154112
-0.643971
-60.747578
-1.237930
110.889516
-92.739127
20.434876
20.623608
78.716744
-83.245240
-6.595167
42.194587
-44.477531
11.650188
-21.296113
41.722446
-13.105435
59.373118
-91.461258
135.499551
-96.032110
94.005898
-67.984711
95.070925
-121.768983
132.154910
-69.937023
35.995733
-83.076898
135.117955
-98.937007
-35.461698
25.366345
72.895421
-77.008623
-105.304635
189.854106
-142.673360
126.420431
-181.254270
235.908558
-118.772035
24.185166
14.560509
-12.371368
14.446382
22.134373
-24.672224
88.346706
9.858940
42.549542
7.263277
39.662110
45.539154
31.024548
17.182217
9.788993
77.046837
-14.624732
19.541473
-24.790496
126.651640
-57.479247
-32.016388
13.250384
71.147905
-37.226294
-101.011234
27.874256
-82.609306
4.679408
-151.604237
57.138172
-96.028778
35.928973
-9.577096
-13.265334
-14.593255
64.890886
-111.042936
89.349448
-52.743179
116.951277
-129.172429
72.038298
-15.632217
91.075711
-114.734966
64.346119
31.116529
45.635654
-87.936277
68.777247
47.915029
-7.971410
-34.852533
17.004210
29.957933
-70.490542
93.690668
-102.268796
70.066026
-99.867243
100.899132
-58.664167
-81.994329
89.025835
-32.249721
0.984959
-6.673752
39.608103
-64.914076
64.758981
-47.567378
73.889425
-85.743663
64.515119
-34.349353
76.453555
-101.677654
91.555956
-44.371165
54.052486
-80.502447
76.756713
-45.398395
5.693091
30.912950
-18.146340
4.183516
-55.309284
88.021113
-23.242525
-11.689573
-14.308642
37.713184
32.619621
-115.696921
44.757429
-27.294215
-9.216752
-2.042534
17.670822
-19.934123
-5.129918
-2.873730
18.366354
-34.047432
-17.148216
-5.767749
21.835759
-44.564270
-19.697547
-2.306827
6.600182
-16.545432
-8.092419
-9.724023
-9.889643
19.550999
24.011043
12.953718
-12.002294
14.597626
8.147601
-5.251468
-14.087159
-9.692523
-29.306175
-17.788488
17.721510
-23.444355
-2.202303
13.439597
8.307796
30.784369
-15.049026
37.270145
-16.920390
50.963943
-37.547959
43.374226
-40.653610
66.114711
-12.810422
6.995530
-44.224132
57.654828
20.743901
-16.268205
-8.693439
-21.600457
19.294462
-36.974612
5.006390
-9.511985
-9.500377
-15.486431
-25.764085
63.698674
-60.715461
-35.095472
11.904123
-15.497781
-11.060364
6.137103
5.581115
25.422165
-30.305849
44.384706
-2.334702
17.812951
17.662487
29.308267
-12.349425
11.952290
21.240176
26.258667
-2.151486
-42.649986
26.992169
21.627531
-5.408312
11.486823
-21.454738
19.762021
-23.828702
32.856705
-27.936444
18.617589
-39.526827
33.654053
0.877078
-7.125728
-2.894287
-16.581477
-5.083465
16.417243
14.481669
20.850921
30.161974
-12.687322
60.616420
-40.532505
40.566402
7.092862
10.087481
-11.690788
-9.658735
28.399703
-9.338607
19.952975
-58.781994
18.522048
-40.108807
40.739049
-28.026714
4.446424
-17.724244
6.322538
9.337037
0.491977
-11.291257
-13.511565
-16.164209
-14.097005
-11.818179
-3.705442
-15.361418
3.837818
14.183277
-11.595581
22.264860
-19.585784
37.632856
-27.109980
22.245686
2.087063
26.604203
11.571452
-8.418430
14.022826
8.445281
33.626409
42.061098
6.991469
26.594551
-11.290142
56.338028
-5.809095
20.932429
-22.307838
17.953207
-5.162524
8.857308
5.525995
-8.969877
4.172891
-11.820928
-10.776272
-4.187833
16.141026
16.500999
11.285302
-8.366174
6.345647
22.515189
2.062530
-10.556415
-12.241313
45.111621
-9.807475
13.691085
-5.546204
7.598849
-40.280507
28.495406
-38.400235
24.256997
-52.897632
21.778175
-41.222133
32.030671
-34.768154
14.149771
-26.735734
8.999884
-9.700864