# vtk DataFile Version 2.0
cantilever_tri3_mix
ASCII
DATASET POLYDATA
POINTS 45 float
0.000000 0.000000 0.000000
48.000000 44.000000 0.000000
48.000000 60.000000 0.000000
0.000000 44.000000 0.000000
7.072997 6.483581 0.000000
13.809185 12.658420 0.000000
20.224602 18.539218 0.000000
26.334523 24.139979 0.000000
32.153495 29.474037 0.000000
37.695374 34.554092 0.000000
42.973353 39.392240 0.000000
48.000000 48.000000 0.000000
48.000000 52.000000 0.000000
48.000000 56.000000 0.000000
42.973353 58.324451 0.000000
37.695374 56.565125 0.000000
32.153495 54.717832 0.000000
26.334523 52.778174 0.000000
20.224602 50.741534 0.000000
13.809185 48.603062 0.000000
7.072997 46.357666 0.000000
0.000000 33.000000 0.000000
0.000000 22.000000 0.000000
0.000000 11.000000 0.000000
7.072997 16.452102 0.000000
7.072997 26.420623 0.000000
7.072997 36.389144 0.000000
13.809185 21.644580 0.000000
13.809185 30.630741 0.000000
13.809185 39.616901 0.000000
20.224602 26.589797 0.000000
20.224602 34.640376 0.000000
20.224602 42.690955 0.000000
26.334523 31.299528 0.000000
26.334523 38.459077 0.000000
26.334523 45.618626 0.000000
32.153495 35.784986 0.000000
32.153495 42.095934 0.000000
32.153495 48.406883 0.000000
37.695374 40.056850 0.000000
37.695374 45.559608 0.000000
37.695374 51.062366 0.000000
42.973353 44.125293 0.000000
42.973353 48.858346 0.000000
42.973353 53.591398 0.000000
POLYGONS 64 256
3 0 4 23
3 23 4 24
3 23 24 22
3 22 24 25
3 22 25 21
3 21 25 26
3 21 26 3
3 3 26 20
3 4 5 24
3 24 5 27
3 24 27 25
3 25 27 28
3 25 28 26
3 26 28 29
3 26 29 20
3 20 29 19
3 5 6 27
3 27 6 30
3 27 30 28
3 28 30 31
3 28 31 29
3 29 31 32
3 29 32 19
3 19 32 18
3 6 7 30
3 30 7 33
3 30 33 31
3 31 33 34
3 31 34 32
3 32 34 35
3 32 35 18
3 18 35 17
3 7 8 33
3 33 8 36
3 33 36 34
3 34 36 37
3 34 37 35
3 35 37 38
3 35 38 17
3 17 38 16
3 8 9 36
3 36 9 39
3 36 39 37
3 37 39 40
3 37 40 38
3 38 40 41
3 38 41 16
3 16 41 15
3 9 10 39
3 39 10 42
3 39 42 40
3 40 42 43
3 40 43 41
3 41 43 44
3 41 44 15
3 15 44 14
3 10 1 42
3 42 1 11
3 42 11 43
3 43 11 12
3 43 12 44
3 44 12 13
3 44 13 14
3 14 13 2
POINT_DATA 45
SCALARS P float
LOOKUP_TABLE default
5.392348
5.898965
-2.833116
-13.317182
5.642204
7.539102
9.766967
10.442602
11.171462
11.496915
8.878209
7.117456
5.333229
4.167721
-1.522808
-3.459217
-7.314703
-7.351500
-8.087721
-6.737632
-6.157952
-0.369771
3.331346
6.906892
6.083120
3.109916
-6.751469
6.678367
2.474541
-6.358003
6.468431
3.478835
-4.719080
4.300523
5.253018
-4.969415
8.843346
2.183685
-1.876942
3.588861
4.861042
-2.292843
4.690581
2.385131
-3.131469
