# vtk DataFile Version 2.0
cantilever_tri3_mix
ASCII
DATASET POLYDATA
POINTS 1900 float
0.000000 0.000000 0.000000
48.000000 44.000000 0.000000
48.000000 60.000000 0.000000
0.000000 44.000000 0.000000
0.872727 0.800000 0.000000
1.745455 1.600000 0.000000
2.618182 2.400000 0.000000
3.490909 3.200000 0.000000
4.363636 4.000000 0.000000
5.236364 4.800000 0.000000
6.109091 5.600000 0.000000
6.981818 6.400000 0.000000
7.854545 7.200000 0.000000
8.727273 8.000000 0.000000
9.600000 8.800000 0.000000
10.472727 9.600000 0.000000
11.345455 10.400000 0.000000
12.218182 11.200000 0.000000
13.090909 12.000000 0.000000
13.963636 12.800000 0.000000
14.836364 13.600000 0.000000
15.709091 14.400000 0.000000
16.581818 15.200000 0.000000
17.454545 16.000000 0.000000
18.327273 16.800000 0.000000
19.200000 17.600000 0.000000
20.072727 18.400000 0.000000
20.945455 19.200000 0.000000
21.818182 20.000000 0.000000
22.690909 20.800000 0.000000
23.563636 21.600000 0.000000
24.436364 22.400000 0.000000
25.309091 23.200000 0.000000
26.181818 24.000000 0.000000
27.054545 24.800000 0.000000
27.927273 25.600000 0.000000
28.800000 26.400000 0.000000
29.672727 27.200000 0.000000
30.545455 28.000000 0.000000
31.418182 28.800000 0.000000
32.290909 29.600000 0.000000
33.163636 30.400000 0.000000
34.036364 31.200000 0.000000
34.909091 32.000000 0.000000
35.781818 32.800000 0.000000
36.654545 33.600000 0.000000
37.527273 34.400000 0.000000
38.400000 35.200000 0.000000
39.272727 36.000000 0.000000
40.145455 36.800000 0.000000
41.018182 37.600000 0.000000
41.890909 38.400000 0.000000
42.763636 39.200000 0.000000
43.636364 40.000000 0.000000
44.509091 40.800000 0.000000
45.381818 41.600000 0.000000
46.254545 42.400000 0.000000
47.127273 43.200000 0.000000
48.000000 44.888889 0.000000
48.000000 45.777778 0.000000
48.000000 46.666667 0.000000
48.000000 47.555556 0.000000
48.000000 48.444444 0.000000
48.000000 49.333333 0.000000
48.000000 50.222222 0.000000
48.000000 51.111111 0.000000
48.000000 52.000000 0.000000
48.000000 52.888889 0.000000
48.000000 53.777778 0.000000
48.000000 54.666667 0.000000
48.000000 55.555556 0.000000
48.000000 56.444444 0.000000
48.000000 57.333333 0.000000
48.000000 58.222222 0.000000
48.000000 59.111111 0.000000
47.127273 59.709091 0.000000
46.254545 59.418182 0.000000
45.381818 59.127273 0.000000
44.509091 58.836364 0.000000
43.636364 58.545455 0.000000
42.763636 58.254545 0.000000
41.890909 57.963636 0.000000
41.018182 57.672727 0.000000
40.145455 57.381818 0.000000
39.272727 57.090909 0.000000
38.400000 56.800000 0.000000
37.527273 56.509091 0.000000
36.654545 56.218182 0.000000
35.781818 55.927273 0.000000
34.909091 55.636364 0.000000
34.036364 55.345455 0.000000
33.163636 55.054545 0.000000
32.290909 54.763636 0.000000
31.418182 54.472727 0.000000
30.545455 54.181818 0.000000
29.672727 53.890909 0.000000
28.800000 53.600000 0.000000
27.927273 53.309091 0.000000
27.054545 53.018182 0.000000
26.181818 52.727273 0.000000
25.309091 52.436364 0.000000
24.436364 52.145455 0.000000
23.563636 51.854545 0.000000
22.690909 51.563636 0.000000
21.818182 51.272727 0.000000
20.945455 50.981818 0.000000
20.072727 50.690909 0.000000
19.200000 50.400000 0.000000
18.327273 50.109091 0.000000
17.454545 49.818182 0.000000
16.581818 49.527273 0.000000
15.709091 49.236364 0.000000
14.836364 48.945455 0.000000
13.963636 48.654545 0.000000
13.090909 48.363636 0.000000
12.218182 48.072727 0.000000
11.345455 47.781818 0.000000
10.472727 47.490909 0.000000
9.600000 47.200000 0.000000
8.727273 46.909091 0.000000
7.854545 46.618182 0.000000
6.981818 46.327273 0.000000
6.109091 46.036364 0.000000
5.236364 45.745455 0.000000
4.363636 45.454545 0.000000
3.490909 45.163636 0.000000
2.618182 44.872727 0.000000
1.745455 44.581818 0.000000
0.872727 44.290909 0.000000
0.000000 43.200000 0.000000
0.000000 42.400000 0.000000
0.000000 41.600000 0.000000
0.000000 40.800000 0.000000
0.000000 40.000000 0.000000
0.000000 39.200000 0.000000
0.000000 38.400000 0.000000
0.000000 37.600000 0.000000
0.000000 36.800000 0.000000
0.000000 36.000000 0.000000
0.000000 35.200000 0.000000
0.000000 34.400000 0.000000
0.000000 33.600000 0.000000
0.000000 32.800000 0.000000
0.000000 32.000000 0.000000
0.000000 31.200000 0.000000
0.000000 30.400000 0.000000
0.000000 29.600000 0.000000
0.000000 28.800000 0.000000
0.000000 28.000000 0.000000
0.000000 27.200000 0.000000
0.000000 26.400000 0.000000
0.000000 25.600000 0.000000
0.000000 24.800000 0.000000
0.000000 24.000000 0.000000
0.000000 23.200000 0.000000
0.000000 22.400000 0.000000
0.000000 21.600000 0.000000
0.000000 20.800000 0.000000
0.000000 20.000000 0.000000
0.000000 19.200000 0.000000
0.000000 18.400000 0.000000
0.000000 17.600000 0.000000
0.000000 16.800000 0.000000
0.000000 16.000000 0.000000
0.000000 15.200000 0.000000
0.000000 14.400000 0.000000
0.000000 13.600000 0.000000
0.000000 12.800000 0.000000
0.000000 12.000000 0.000000
0.000000 11.200000 0.000000
0.000000 10.400000 0.000000
0.000000 9.600000 0.000000
0.000000 8.800000 0.000000
0.000000 8.000000 0.000000
0.000000 7.200000 0.000000
0.000000 6.400000 0.000000
0.000000 5.600000 0.000000
0.000000 4.800000 0.000000
0.000000 4.000000 0.000000
0.000000 3.200000 0.000000
0.000000 2.400000 0.000000
0.000000 1.600000 0.000000
0.000000 0.800000 0.000000
0.694258 14.149242 0.000000
0.585552 13.195906 0.000000
1.294127 13.432843 0.000000
3.945012 44.548794 0.000000
3.208568 44.415171 0.000000
4.253170 43.971445 0.000000
4.811175 44.705668 0.000000
39.397800 53.513213 0.000000
39.878707 52.860192 0.000000
40.192389 53.695448 0.000000
40.641925 53.171124 0.000000
7.645820 45.821368 0.000000
6.908434 45.718696 0.000000
7.332052 45.178658 0.000000
37.768710 47.406893 0.000000
38.103949 46.473663 0.000000
38.752058 47.374558 0.000000
39.035748 46.393027 0.000000
31.779879 48.682443 0.000000
32.443003 49.345434 0.000000
31.283875 49.716388 0.000000
32.079740 50.226328 0.000000
5.794443 41.746877 0.000000
5.796105 41.148240 0.000000
6.451731 41.350370 0.000000
6.266310 40.539650 0.000000
2.618474 18.806372 0.000000
2.880598 19.689706 0.000000
2.240131 19.463837 0.000000
3.535938 19.198551 0.000000
20.679625 41.238769 0.000000
21.649077 41.097435 0.000000
21.212439 42.109900 0.000000
46.092049 49.457252 0.000000
46.766904 49.687382 0.000000
46.176057 50.229733 0.000000
22.313225 41.831085 0.000000
18.064072 32.926502 0.000000
17.275358 33.512162 0.000000
17.273543 32.532041 0.000000
37.164174 55.197491 0.000000
37.864513 55.314664 0.000000
37.473901 55.829333 0.000000
9.762751 23.811158 0.000000
9.500261 22.810664 0.000000
10.611761 23.306359 0.000000
45.705401 57.893364 0.000000
46.052695 58.558345 0.000000
45.165595 58.311112 0.000000
37.900548 54.415040 0.000000
10.518799 24.273470 0.000000
10.762426 25.077748 0.000000
9.970961 24.693481 0.000000
46.294695 57.791929 0.000000
2.437401 17.410921 0.000000
1.659453 17.312549 0.000000
2.286490 16.799822 0.000000
1.842203 18.062493 0.000000
7.445192 13.471215 0.000000
7.109020 12.651606 0.000000
8.156381 12.615359 0.000000
12.029410 24.260251 0.000000
12.680435 23.744023 0.000000
12.902330 24.648249 0.000000
11.746475 23.518024 0.000000
24.604336 28.456658 0.000000
25.190330 27.640606 0.000000
25.637730 28.565582 0.000000
6.353380 13.223196 0.000000
26.232608 27.440434 0.000000
13.855042 20.101601 0.000000
13.259925 20.454657 0.000000
12.899019 19.707948 0.000000
13.739721 21.077232 0.000000
46.518255 48.842045 0.000000
45.625723 48.832374 0.000000
16.480017 32.962893 0.000000
5.623249 28.531920 0.000000
6.347279 28.898954 0.000000
5.585954 29.334965 0.000000
6.483136 29.652545 0.000000
5.523814 39.113026 0.000000
6.241984 39.165538 0.000000
5.862050 39.829584 0.000000
6.092849 38.507078 0.000000
15.963610 44.606522 0.000000
15.090775 44.034820 0.000000
15.714314 43.530652 0.000000
9.296400 43.728660 0.000000
9.164168 44.557968 0.000000
8.360800 44.029826 0.000000
19.737669 23.876084 0.000000
20.369190 24.644551 0.000000
19.289604 25.087764 0.000000
32.602507 47.477466 0.000000
32.075366 48.035092 0.000000
31.883695 47.104506 0.000000
32.905535 48.354266 0.000000
14.866451 44.796130 0.000000
30.152695 52.690946 0.000000
30.837261 53.180322 0.000000
30.152893 53.415505 0.000000
11.123304 25.930974 0.000000
11.985477 26.125600 0.000000
11.235292 26.822324 0.000000
5.654347 44.212705 0.000000
4.914154 43.745050 0.000000
12.266245 27.012100 0.000000
13.432299 23.160078 0.000000
12.479705 22.900265 0.000000
13.618470 23.885446 0.000000
5.692992 45.104250 0.000000
47.169452 48.200332 0.000000
47.302358 49.068824 0.000000
6.221282 12.107797 0.000000
5.262673 12.974962 0.000000
20.498271 25.580677 0.000000
2.190973 35.958994 0.000000
2.938747 36.099059 0.000000
2.580153 36.896140 0.000000
8.921671 11.701481 0.000000
7.603826 11.836842 0.000000
3.465318 36.491046 0.000000
40.889080 50.463708 0.000000
40.169477 51.129378 0.000000
40.115104 50.178462 0.000000
40.945290 51.489571 0.000000
22.856056 32.632251 0.000000
23.726343 31.944356 0.000000
23.971533 32.910934 0.000000
22.774652 31.449161 0.000000
42.546371 49.185110 0.000000
41.727702 49.806890 0.000000
41.722490 48.797230 0.000000
42.553000 50.211410 0.000000
12.696318 25.373818 0.000000
12.893020 26.141609 0.000000
6.555295 45.168884 0.000000
11.793959 25.147980 0.000000
2.414781 10.225124 0.000000
2.705464 11.235501 0.000000
1.828904 10.741136 0.000000
3.433352 10.594861 0.000000
0.535478 3.066047 0.000000
1.244863 11.178388 0.000000
1.150622 10.487952 0.000000
13.688765 26.129500 0.000000
13.151524 26.762298 0.000000
13.963995 26.990191 0.000000
15.861419 20.092203 0.000000
17.053191 20.414334 0.000000
15.979087 21.033688 0.000000
3.452534 13.543105 0.000000
3.251915 14.480610 0.000000
2.511916 13.940540 0.000000
31.114428 52.055178 0.000000
19.957278 39.145460 0.000000
20.384318 40.283404 0.000000
19.491615 39.992153 0.000000
8.283912 15.410974 0.000000
7.268090 15.713283 0.000000
7.590207 14.569791 0.000000
16.761550 21.364085 0.000000
15.555646 23.884567 0.000000
[...]
POINT_DATA 1900
VECTORS U float
-0.000176 0.003349 0.000000
-5.548563 25.577537 0.000000
-19.940787 27.628374 0.000000
-0.000459 0.249155 0.000000
0.005267 0.225107 0.000000
0.010313 0.437421 0.000000
0.015708 0.642519 0.000000
0.017225 0.843894 0.000000
0.016365 1.041357 0.000000
0.017463 1.232339 0.000000
0.024806 1.415009 0.000000
0.037700 1.591519 0.000000
0.056975 1.763251 0.000000
0.084212 1.930483 0.000000
0.119039 2.095839 0.000000
0.162170 2.261442 0.000000
0.213859 2.428468 0.000000
0.274995 2.597895 0.000000
0.345367 2.773403 0.000000
0.421471 2.958160 0.000000
0.502159 3.153872 0.000000
0.588071 3.361082 0.000000
0.677688 3.581787 0.000000
0.768033 3.817817 0.000000
0.857286 4.071767 0.000000
0.943421 4.344967 0.000000
1.025493 4.636858 0.000000
1.102495 4.948410 0.000000
1.172375 5.281679 0.000000
1.233277 5.637399 0.000000
1.282933 6.014634 0.000000
1.320544 6.413370 0.000000
1.345340 6.835161 0.000000
1.355882 7.280264 0.000000
1.351399 7.747717 0.000000
1.329954 8.238565 0.000000
1.290335 8.753601 0.000000
1.233386 9.291297 0.000000
1.157916 9.850080 0.000000
1.062586 10.430835 0.000000
0.946744 11.035278 0.000000
0.809498 11.663328 0.000000
0.650386 12.313870 0.000000
0.468925 12.985916 0.000000
0.265190 13.679880 0.000000
0.039224 14.396200 0.000000
-0.210277 15.136055 0.000000
-0.485686 15.899784 0.000000
-0.788952 16.686101 0.000000
-1.119015 17.493622 0.000000
-1.475208 18.322010 0.000000
-1.858912 19.170997 0.000000
-2.273521 20.039045 0.000000
-2.723947 20.926250 0.000000
-3.205239 21.833010 0.000000
-3.717399 22.755642 0.000000
-4.272289 23.688116 0.000000
-4.882739 24.628986 0.000000
-6.269958 25.604707 0.000000
-6.943952 25.661694 0.000000
-7.596216 25.732791 0.000000
-8.243845 25.814191 0.000000
-8.896423 25.907057 0.000000
-9.555466 26.012710 0.000000
-10.228038 26.130855 0.000000
-10.916497 26.258531 0.000000
-11.626059 26.391725 0.000000
-12.359083 26.527138 0.000000
-13.120129 26.664773 0.000000
-13.912104 26.807364 0.000000
-14.741352 26.956168 0.000000
-15.616790 27.109069 0.000000
-16.545366 27.261136 0.000000
-17.541423 27.404073 0.000000
-18.641294 27.528278 0.000000
-19.414074 26.266122 0.000000
-18.930960 25.101694 0.000000
-18.467720 24.049957 0.000000
-18.019114 23.061061 0.000000
-17.585371 22.118710 0.000000
-17.165834 21.215414 0.000000
-16.758024 20.346142 0.000000
-16.356405 19.507447 0.000000
-15.955942 18.690532 0.000000
-15.556741 17.894665 0.000000
-15.160720 17.123211 0.000000
-14.767632 16.373642 0.000000
-14.375680 15.645019 0.000000
-13.982877 14.936347 0.000000
-13.589892 14.249150 0.000000
-13.199715 13.583416 0.000000
-12.812481 12.937593 0.000000
-12.426627 12.311603 0.000000
-12.041829 11.705580 0.000000
-11.658410 11.121282 0.000000
-11.277967 10.556679 0.000000
-10.901245 10.011352 0.000000
-10.527436 9.486546 0.000000
-10.156841 8.980884 0.000000
-9.789928 8.496177 0.000000
-9.427155 8.029075 0.000000
-9.069015 7.578560 0.000000
-8.714760 7.146492 0.000000
-8.363703 6.733424 0.000000
-8.016586 6.337912 0.000000
-7.674153 5.959193 0.000000
-7.336505 5.596731 0.000000
-7.004054 5.250236 0.000000
-6.676755 4.921380 0.000000
-6.353264 4.608348 0.000000
-6.033425 4.310553 0.000000
-5.717661 4.027606 0.000000
-5.406038 3.758382 0.000000
-5.098818 3.502337 0.000000
-4.795193 3.259118 0.000000
-4.493460 3.031263 0.000000
-4.193995 2.819361 0.000000
-3.898842 2.617121 0.000000
-3.608648 2.419975 0.000000
-3.323644 2.233531 0.000000
-3.039410 2.066259 0.000000
-2.748893 1.915318 0.000000
-2.452821 1.768603 0.000000
-2.162645 1.615380 0.000000
-1.890304 1.457836 0.000000
-1.626032 1.302816 0.000000
-1.331684 1.148465 0.000000
-0.957180 0.966456 0.000000
-0.486303 0.687039 0.000000
-0.000057 0.007100 0.000000
0.000004 -0.039954 0.000000
-0.000023 -0.016024 0.000000
0.000038 0.009818 0.000000
0.000061 0.015471 0.000000
0.000022 0.008342 0.000000
-0.000010 -0.000136 0.000000
-0.000022 -0.003912 0.000000
-0.000026 -0.000875 0.000000
-0.000008 0.004088 0.000000
-0.000028 0.004274 0.000000
-0.000074 0.000485 0.000000
-0.000059 -0.001655 0.000000
-0.000040 -0.002228 0.000000
0.000005 -0.002860 0.000000
0.000010 -0.001752 0.000000
-0.000004 0.000785 0.000000
0.000017 0.001961 0.000000
0.000026 0.003596 0.000000
0.000012 0.005406 0.000000
0.000007 0.003611 0.000000
0.000001 -0.000148 0.000000
0.000000 -0.002342 0.000000
0.000010 -0.003348 0.000000
-0.000011 -0.003094 0.000000
-0.000027 -0.000660 0.000000
-0.000014 0.001785 0.000000
-0.000005 0.002528 0.000000
-0.000001 0.002144 0.000000
-0.000003 0.000482 0.000000
-0.000010 -0.000748 0.000000
-0.000007 -0.000993 0.000000
0.000013 -0.001364 0.000000
-0.000002 -0.000903 0.000000
0.000003 0.000067 0.000000
-0.000003 -0.000117 0.000000
-0.000009 -0.000172 0.000000
0.000005 0.000244 0.000000
0.000004 0.000026 0.000000
0.000005 -0.000316 0.000000
0.000002 0.000032 0.000000
0.000015 0.000836 0.000000
0.000001 0.001471 0.000000
-0.000003 0.001507 0.000000
-0.000016 0.000963 0.000000
-0.000003 0.000034 0.000000
0.000002 -0.000804 0.000000
-0.000012 -0.001050 0.000000
-0.000004 -0.000217 0.000000
0.000013 0.000660 0.000000
0.000012 0.001004 0.000000
0.000001 0.000743 0.000000
0.000009 -0.000350 0.000000
0.000005 -0.000888 0.000000
0.003012 0.138534 0.000000
0.001389 0.122924 0.000000
0.008239 0.265346 0.000000
-1.444768 1.240112 0.000000
-1.232107 1.126110 0.000000
-1.283232 1.148913 0.000000
-1.683789 1.363955 0.000000
-12.144604 17.661087 0.000000
-11.613764 18.043822 0.000000
-12.371679 18.399274 0.000000
-11.942744 18.779045 0.000000
-2.675296 1.891535 0.000000
-2.494303 1.786182 0.000000
-2.361488 1.733088 0.000000
-7.229533 15.717541 0.000000
-6.616581 15.937492 0.000000
-7.283313 16.577104 0.000000
-6.631165 16.756462 0.000000
-7.604109 11.224182 0.000000
-8.137545 11.742883 0.000000
-8.281878 11.001751 0.000000
-8.739189 11.586908 0.000000
-0.948964 0.876048 0.000000
-0.806088 0.770850 0.000000
-0.964478 0.906739 0.000000
-0.754451 0.746062 0.000000
0.051137 0.361503 0.000000
0.063908 0.365032 0.000000
0.039671 0.284698 0.000000
0.091017 0.481880 0.000000
-2.541818 4.664464 0.000000
-2.550461 5.060976 0.000000
-2.951025 4.949679 0.000000
-9.427825 24.042642 0.000000
-9.671306 24.779551 0.000000
-10.011536 24.213703 0.000000
-2.911165 5.401519 0.000000
0.054405 3.359237 0.000000
-0.061856 3.070765 0.000000
0.124635 3.072339 0.000000
-13.462015 15.927833 0.000000
-13.649501 16.513496 0.000000
-14.099012 16.250240 0.000000
0.507541 1.296938 0.000000
0.497235 1.314827 0.000000
0.577393 1.527555 0.000000
-16.969101 24.345807 0.000000
-17.787146 24.800455 0.000000
-17.431651 23.744580 0.000000
-12.815869 16.449967 0.000000
0.555881 1.434145 0.000000
0.555050 1.434397 0.000000
0.508055 1.278485 0.000000
-16.885349 25.055049 0.000000
0.041723 0.381122 0.000000
0.020278 0.258822 0.000000
0.036916 0.374961 0.000000
0.024776 0.268824 0.000000
0.218490 1.508871 0.000000
0.182622 1.474039 0.000000
0.224323 1.695571 0.000000
0.664752 1.806955 0.000000
0.722243 2.014687 0.000000
0.714621 2.012337 0.000000
0.658954 1.788421 0.000000
0.951435 6.327650 0.000000
1.071513 6.653751 0.000000
0.962881 6.867036 0.000000
0.164507 1.293421 0.000000
1.122644 7.219670 0.000000
0.809547 2.590774 0.000000
0.774531 2.405877 0.000000
0.736277 2.363271 0.000000
0.815230 2.492433 0.000000
-9.024771 24.425926 0.000000
-8.924829 23.485826 0.000000
0.042839 2.791583 0.000000
0.164157 0.259251 0.000000
0.189021 0.343070 0.000000
0.147767 0.220504 0.000000
0.174047 0.332865 0.000000
-0.409969 0.431788 0.000000
-0.504736 0.550485 0.000000
-0.564023 0.577219 0.000000
-0.394745 0.451663 0.000000
-3.501824 3.377593 0.000000
-3.143954 3.060544 0.000000
-3.011678 3.172552 0.000000
-2.176932 1.758594 0.000000
-2.458103 1.880146 0.000000
-2.121803 1.662162 0.000000
1.141575 4.305341 0.000000
1.141241 4.521435 0.000000
1.069598 4.073717 0.000000
-6.859749 11.678725 0.000000
-7.188069 11.362947 0.000000
-6.550817 11.148818 0.000000
-7.483789 11.971815 0.000000
-3.438530 3.101766 0.000000
-10.382340 10.661105 0.000000
-10.872800 11.150494 0.000000
-10.963857 10.767126 0.000000
0.552411 1.464425 0.000000
0.599962 1.670426 0.000000
0.522416 1.436192 0.000000
-1.671542 1.350965 0.000000
-1.349088 1.171522 0.000000
0.573820 1.690835 0.000000
0.786025 2.261699 0.000000
0.721406 2.022269 0.000000
0.784147 2.264115 0.000000
-2.013922 1.534652 0.000000
-8.629086 25.034519 0.000000
-9.276347 25.266019 0.000000
0.134695 1.309982 0.000000
0.116114 1.079816 0.000000
1.095304 4.533611 0.000000
-0.013909 -0.107206 0.000000
-0.031381 -0.078077 0.000000
-0.032610 -0.072100 0.000000
0.218681 1.891117 0.000000
0.177484 1.609137 0.000000
-0.056609 -0.030944 0.000000
-9.732341 18.806496 0.000000
-10.199652 18.176758 0.000000
-9.449548 18.049693 0.000000
-10.550441 18.940892 0.000000
0.149164 5.386458 0.000000
0.310953 5.813838 0.000000
0.091682 5.926306 0.000000
0.401505 5.361515 0.000000
-8.899023 20.332598 0.000000
-9.297099 19.569161 0.000000
-8.543050 19.480160 0.000000
-9.671955 20.424412 0.000000
0.676097 1.907927 0.000000
0.655714 1.913282 0.000000
-2.209259 1.640128 0.000000
0.623997 1.685025 0.000000
0.018341 0.548806 0.000000
0.024853 0.596525 0.000000
0.011634 0.412447 0.000000
0.036200 0.765174 0.000000
0.000423 0.130215 0.000000
0.005264 0.278205 0.000000
0.004961 0.262634 0.000000
0.704875 2.139154 0.000000
0.638913 1.948284 0.000000
0.671666 2.169217 0.000000
0.936757 3.169275 0.000000
1.011594 3.525500 0.000000
0.960326 3.148878 0.000000
0.058249 0.693986 0.000000
0.058885 0.624509 0.000000
0.033802 0.496475 0.000000
-10.013335 11.171199 0.000000
-1.695212 4.241430 0.000000
-2.141267 4.479597 0.000000
-1.974025 4.109395 0.000000
0.314779 1.581933 0.000000
0.263264 1.355490 0.000000
0.253571 1.484620 0.000000
1.009804 3.377695 0.000000
0.910414 2.840138 0.000000
0.889581 2.711303 0.000000
0.949221 2.994592 0.000000
0.899456 2.756909 0.000000
-7.027690 8.679061 0.000000
-6.508741 8.853819 0.000000
-7.065036 9.236428 0.000000
-6.526710 8.290602 0.000000
-1.840757 4.692334 0.000000
0.067269 1.139078 0.000000
0.045404 1.092036 0.000000
0.062465 1.301993 0.000000
0.044496 0.953060 0.000000
0.019175 -0.016016 0.000000
0.023462 -0.028695 0.000000
0.007397 -0.029966 0.000000
-4.697531 20.071374 0.000000
-4.582825 21.072114 0.000000
-5.119836 20.704119 0.000000
0.083505 1.558268 0.000000
0.073232 1.676234 0.000000
0.104788 1.812815 0.000000
-5.185081 21.704316 0.000000
-5.742295 6.849496 0.000000
-5.286332 6.972129 0.000000
-5.806702 7.305870 0.000000
-5.225089 6.519905 0.000000
-0.011572 -0.097123 0.000000
-0.003661 -0.098261 0.000000
-0.001177 -0.087370 0.000000
-1.347569 9.913582 0.000000
-1.258772 9.326090 0.000000
-0.919166 9.773565 0.000000
-0.891428 9.232109 0.000000
0.516347 4.444662 0.000000
0.379842 3.936474 0.000000
0.598516 4.011095 0.000000
0.014201 -0.046312 0.000000
0.005863 0.466684 0.000000
0.013691 0.694047 0.000000
0.013518 0.569641 0.000000
-11.243231 22.424356 0.000000
-11.957997 23.190344 0.000000
-11.853767 22.034856 0.000000
0.962849 3.467372 0.000000
1.023434 3.851689 0.000000
1.313065 6.167380 0.000000
1.282259 5.661538 0.000000
1.074243 3.970633 0.000000
1.124451 4.130076 0.000000
1.062575 3.717779 0.000000
-11.443392 13.512754 0.000000
-11.542094 14.137106 0.000000
-12.022498 13.775927 0.000000
0.002204 -0.055418 0.000000
0.002629 -0.056442 0.000000
0.008025 -0.088917 0.000000
0.148871 1.109148 0.000000
0.202851 1.240214 0.000000
0.155167 1.000288 0.000000
0.000536 0.141394 0.000000
0.000966 0.223832 0.000000
0.001005 0.300236 0.000000
0.002347 0.406302 0.000000
1.054111 4.229379 0.000000
0.416034 1.539899 0.000000
0.338273 1.339506 0.000000
0.365759 1.512853 0.000000
-9.402058 22.113534 0.000000
-9.722956 21.364621 0.000000
-9.132622 21.163313 0.000000
-10.097971 22.034583 0.000000
0.097451 0.768283 0.000000
0.123848 0.803254 0.000000
-8.526633 20.952385 0.000000
-8.164310 20.206004 0.000000
-3.899944 4.214669 0.000000
-3.732328 4.402592 0.000000
-4.156903 4.551397 0.000000
0.034669 1.277170 0.000000
0.029039 1.358037 0.000000
0.046919 1.518458 0.000000
-3.850157 4.677145 0.000000
0.449215 1.094208 0.000000
0.477889 1.186452 0.000000
0.454447 1.124793 0.000000
0.502832 1.283288 0.000000
0.442804 1.097667 0.000000
0.480149 1.252298 0.000000
0.924588 2.917102 0.000000
0.965272 3.095707 0.000000
0.886766 2.832896 0.000000
1.024679 3.403270 0.000000
0.981461 3.191856 0.000000
0.318463 0.962109 0.000000
0.280253 0.821168 0.000000
0.254294 0.808161 0.000000
0.223499 0.668368 0.000000
-3.250604 3.767368 0.000000
-3.189193 3.451551 0.000000
-2.823769 3.474501 0.000000
-2.841611 3.261304 0.000000
-6.267014 5.781616 0.000000
-5.960081 5.908294 0.000000
-6.454124 6.139538 0.000000
-5.746425 5.601603 0.000000
-6.552953 6.509578 0.000000
-7.051168 6.420635 0.000000
-16.479985 23.557921 0.000000
-16.173638 24.332263 0.000000
-0.001077 0.349905 0.000000
-0.000670 0.185525 0.000000
-0.000380 0.191316 0.000000
-16.952043 22.766081 0.000000
-7.190354 6.803522 0.000000
-14.263195 16.810556 0.000000
0.000454 0.157859 0.000000
0.754077 3.538720 0.000000
0.843730 3.765506 0.000000
0.824792 3.472975 0.000000
-8.077739 8.829880 0.000000
-8.178641 9.398039 0.000000
-8.635510 9.180783 0.000000
-4.676919 22.719812 0.000000
-5.004807 23.636465 0.000000
-5.545845 22.961634 0.000000
-5.551803 24.169387 0.000000
-7.604954 9.126880 0.000000
-12.010740 16.821916 0.000000
-12.843382 17.350774 0.000000
-11.364589 17.253184 0.000000
-16.171863 25.096110 0.000000
-0.073396 -0.005235 0.000000
-0.070469 -0.012249 0.000000
-0.124146 0.067188 0.000000
-0.109631 0.059821 0.000000
-2.323819 3.663076 0.000000
-2.201435 3.920669 0.000000
-2.602127 4.029652 0.000000
0.008353 0.974121 0.000000
0.007683 0.992911 0.000000
0.003240 0.799167 0.000000
-15.332265 26.381164 0.000000
-15.950621 26.489133 0.000000
-15.616342 25.609466 0.000000
-2.406268 4.281069 0.000000
-15.472261 24.583434 0.000000
-14.965604 24.924060 0.000000
-10.054076 19.611510 0.000000
-14.818311 25.740462 0.000000
-8.926809 18.625555 0.000000
-13.351200 15.270170 0.000000
0.975953 7.435549 0.000000
0.799702 7.147769 0.000000
0.758766 6.549593 0.000000
-0.669775 14.004551 0.000000
-0.334589 14.238706 0.000000
-0.601526 14.778494 0.000000
0.003882 0.787223 0.000000
-0.000180 0.536236 0.000000
0.000335 0.624953 0.000000
-3.643786 6.682162 0.000000
-3.843910 7.161940 0.000000
-4.203768 6.838971 0.000000
-4.317906 7.404129 0.000000
-3.819785 6.319943 0.000000
-4.273340 6.426469 0.000000
-0.008059 0.039607 0.000000
0.030197 0.522909 0.000000
0.019027 0.393555 0.000000
0.014120 0.380581 0.000000
-0.000721 0.429990 0.000000
-10.743290 17.669846 0.000000
-10.879132 18.329129 0.000000
-9.958049 17.369953 0.000000
-11.320033 18.837627 0.000000
-0.626301 2.113616 0.000000
-0.906491 2.356588 0.000000
-0.841089 2.084260 0.000000
-15.915263 22.936295 0.000000
-15.544104 23.739705 0.000000
0.005241 0.248401 0.000000
-16.814694 21.842040 0.000000
0.010319 0.980125 0.000000
0.015583 1.177074 0.000000
-0.794503 1.840921 0.000000
-0.623483 1.666205 0.000000
-0.676394 1.913309 0.000000
0.019587 1.123739 0.000000
0.011338 0.899470 0.000000
-12.133728 14.551775 0.000000
-12.747376 14.020218 0.000000
0.988696 3.361779 0.000000
0.904842 3.093256 0.000000
0.917867 2.965358 0.000000
0.955676 3.408250 0.000000
0.862968 2.683028 0.000000
0.842413 2.528628 0.000000
0.014748 0.109410 0.000000
0.004006 0.048745 0.000000
0.005702 0.073745 0.000000
-7.420849 23.640842 0.000000
-7.260964 24.326529 0.000000
-7.734203 24.349218 0.000000
-7.648059 25.005132 0.000000
-7.730511 22.817340 0.000000
-6.877717 22.671730 0.000000
-7.352087 21.845625 0.000000
-6.490107 10.409687 0.000000
-6.997302 10.276644 0.000000
-6.487313 9.816082 0.000000
-7.196731 9.848996 0.000000
0.004187 0.672753 0.000000
0.188757 0.403727 0.000000
0.210094 0.426528 0.000000
0.168195 0.330619 0.000000
0.965710 3.689386 0.000000
0.846077 3.483664 0.000000
0.885272 3.261091 0.000000
0.244518 0.539233 0.000000
0.235854 0.469916 0.000000
0.251548 0.528622 0.000000
0.171210 0.311320 0.000000
-14.094758 25.833531 0.000000
0.127521 0.196389 0.000000
0.150683 0.337413 0.000000
0.104569 0.204622 0.000000
-14.814081 24.082574 0.000000
-14.276159 24.758843 0.000000
0.117813 0.342808 0.000000
1.188254 4.566935 0.000000
1.199882 4.807017 0.000000
1.122477 4.047717 0.000000
-8.952134 22.512467 0.000000
-8.407315 22.773429 0.000000
-9.520780 23.226915 0.000000
-0.000118 0.209108 0.000000
0.000194 0.417651 0.000000
-8.002614 22.089058 0.000000
0.242216 0.480769 0.000000
0.187090 0.328409 0.000000
0.289703 0.619344 0.000000
0.038056 0.043914 0.000000
0.058684 0.069865 0.000000
0.036694 0.019877 0.000000
0.005657 0.581884 0.000000
0.001624 0.371938 0.000000
0.001158 0.235858 0.000000
0.023103 1.042399 0.000000
0.012915 0.804225 0.000000
0.065219 0.059004 0.000000
-2.941914 8.388629 0.000000
-2.894299 8.924202 0.000000
-3.199789 8.692065 0.000000
-3.272156 9.270895 0.000000
-15.244435 22.360667 0.000000
-14.985682 23.190454 0.000000
-2.579629 8.426939 0.000000
-16.077552 22.107759 0.000000
-16.139931 21.152309 0.000000
0.039564 1.187753 0.000000
0.025623 0.940263 0.000000
-2.471734 9.021518 0.000000
0.268525 0.699062 0.000000
0.339348 0.891520 0.000000
0.306883 0.923672 0.000000
-0.015083 0.002458 0.000000
0.303533 0.709673 0.000000
-13.433135 25.780398 0.000000
-0.054374 0.091349 0.000000
-0.141401 0.212201 0.000000
-0.083398 0.186123 0.000000
-0.251589 0.397337 0.000000
0.333692 1.129914 0.000000
0.263499 0.954136 0.000000
-13.645339 24.157752 0.000000
-13.668253 25.018474 0.000000
-14.277036 23.656179 0.000000
0.270646 1.158815 0.000000
-0.786623 0.867799 0.000000
-0.526630 0.645865 0.000000
-0.975096 0.973524 0.000000
0.086605 0.793721 0.000000
0.055367 1.429373 0.000000
-1.096553 3.697863 0.000000
-1.009956 3.328793 0.000000
-0.880010 3.558913 0.000000
-0.703865 3.205166 0.000000
-0.449632 5.672037 0.000000
-0.658089 5.501231 0.000000
-0.455864 5.201909 0.000000
0.026583 0.830944 0.000000
-0.715341 5.100524 0.000000
0.098853 0.911793 0.000000
-15.454281 21.665029 0.000000
-14.643108 21.816453 0.000000
-14.372816 22.668683 0.000000
0.142002 0.206375 0.000000
-6.869440 12.207750 0.000000
-6.333919 12.343615 0.000000
-6.841322 12.882889 0.000000
-6.144882 12.940188 0.000000
-2.216732 11.962011 0.000000
-2.093232 11.326836 0.000000
-1.759884 11.755393 0.000000
-2.502688 11.279864 0.000000
-1.066935 8.839928 0.000000
-1.387590 8.787570 0.000000
0.708596 2.754364 0.000000
0.751691 3.000757 0.000000
0.795556 2.881196 0.000000
-0.471788 0.634259 0.000000
-4.929282 4.264329 0.000000
-4.949855 4.569954 0.000000
-5.432167 4.561349 0.000000
-5.447467 4.803288 0.000000
-4.471881 4.176741 0.000000
0.821675 3.186089 0.000000
-4.383302 4.374182 0.000000
0.302212 0.700114 0.000000
0.260731 0.606009 0.000000
0.309649 0.757077 0.000000
-13.111524 24.747265 0.000000
-12.737926 25.579176 0.000000
0.094602 1.395290 0.000000
-12.869421 23.522326 0.000000
-13.646340 23.128110 0.000000
0.001832 0.183695 0.000000
0.004197 0.332770 0.000000
0.007561 0.354333 0.000000
0.254282 0.627951 0.000000
0.336571 0.770992 0.000000
0.286363 0.632143 0.000000
0.298857 0.648420 0.000000
0.449350 1.214051 0.000000
0.486420 1.422751 0.000000
0.316778 9.233650 0.000000
0.567333 9.032928 0.000000
0.601484 9.750393 0.000000
0.026420 0.724722 0.000000
0.513936 1.659974 0.000000
0.436508 1.420609 0.000000
-10.626562 22.820705 0.000000
-10.654977 21.984697 0.000000
0.365568 0.935685 0.000000
0.299161 0.777783 0.000000
0.770408 9.333905 0.000000
-15.068057 21.046788 0.000000
-15.605693 20.120697 0.000000
-1.030182 0.977564 0.000000
-0.692686 0.740838 0.000000
-14.135801 21.245642 0.000000
-13.822635 22.159609 0.000000
-8.300974 9.880456 0.000000
-7.734941 9.618741 0.000000
-8.689383 9.677080 0.000000
0.959026 3.672765 0.000000
0.982362 3.949767 0.000000
0.123304 1.659051 0.000000
0.132292 1.492543 0.000000
0.095678 1.211180 0.000000
0.147012 1.948732 0.000000
0.928081 4.001461 0.000000
1.001514 4.251526 0.000000
0.061431 0.970604 0.000000
-12.390890 24.448585 0.000000