# vtk DataFile Version 2.0
cantilever_tri3_mix
ASCII
DATASET POLYDATA
POINTS 1900 float
0.000000 0.000000 0.000000
48.000000 44.000000 0.000000
48.000000 60.000000 0.000000
0.000000 44.000000 0.000000
0.872727 0.800000 0.000000
1.745455 1.600000 0.000000
2.618182 2.400000 0.000000
3.490909 3.200000 0.000000
4.363636 4.000000 0.000000
5.236364 4.800000 0.000000
6.109091 5.600000 0.000000
6.981818 6.400000 0.000000
7.854545 7.200000 0.000000
8.727273 8.000000 0.000000
9.600000 8.800000 0.000000
10.472727 9.600000 0.000000
11.345455 10.400000 0.000000
12.218182 11.200000 0.000000
13.090909 12.000000 0.000000
13.963636 12.800000 0.000000
14.836364 13.600000 0.000000
15.709091 14.400000 0.000000
16.581818 15.200000 0.000000
17.454545 16.000000 0.000000
18.327273 16.800000 0.000000
19.200000 17.600000 0.000000
20.072727 18.400000 0.000000
20.945455 19.200000 0.000000
21.818182 20.000000 0.000000
22.690909 20.800000 0.000000
23.563636 21.600000 0.000000
24.436364 22.400000 0.000000
25.309091 23.200000 0.000000
26.181818 24.000000 0.000000
27.054545 24.800000 0.000000
27.927273 25.600000 0.000000
28.800000 26.400000 0.000000
29.672727 27.200000 0.000000
30.545455 28.000000 0.000000
31.418182 28.800000 0.000000
32.290909 29.600000 0.000000
33.163636 30.400000 0.000000
34.036364 31.200000 0.000000
34.909091 32.000000 0.000000
35.781818 32.800000 0.000000
36.654545 33.600000 0.000000
37.527273 34.400000 0.000000
38.400000 35.200000 0.000000
39.272727 36.000000 0.000000
40.145455 36.800000 0.000000
41.018182 37.600000 0.000000
41.890909 38.400000 0.000000
42.763636 39.200000 0.000000
43.636364 40.000000 0.000000
44.509091 40.800000 0.000000
45.381818 41.600000 0.000000
46.254545 42.400000 0.000000
47.127273 43.200000 0.000000
48.000000 44.888889 0.000000
48.000000 45.777778 0.000000
48.000000 46.666667 0.000000
48.000000 47.555556 0.000000
48.000000 48.444444 0.000000
48.000000 49.333333 0.000000
48.000000 50.222222 0.000000
48.000000 51.111111 0.000000
48.000000 52.000000 0.000000
48.000000 52.888889 0.000000
48.000000 53.777778 0.000000
48.000000 54.666667 0.000000
48.000000 55.555556 0.000000
48.000000 56.444444 0.000000
48.000000 57.333333 0.000000
48.000000 58.222222 0.000000
48.000000 59.111111 0.000000
47.127273 59.709091 0.000000
46.254545 59.418182 0.000000
45.381818 59.127273 0.000000
44.509091 58.836364 0.000000
43.636364 58.545455 0.000000
42.763636 58.254545 0.000000
41.890909 57.963636 0.000000
41.018182 57.672727 0.000000
40.145455 57.381818 0.000000
39.272727 57.090909 0.000000
38.400000 56.800000 0.000000
37.527273 56.509091 0.000000
36.654545 56.218182 0.000000
35.781818 55.927273 0.000000
34.909091 55.636364 0.000000
34.036364 55.345455 0.000000
33.163636 55.054545 0.000000
32.290909 54.763636 0.000000
31.418182 54.472727 0.000000
30.545455 54.181818 0.000000
29.672727 53.890909 0.000000
28.800000 53.600000 0.000000
27.927273 53.309091 0.000000
27.054545 53.018182 0.000000
26.181818 52.727273 0.000000
25.309091 52.436364 0.000000
24.436364 52.145455 0.000000
23.563636 51.854545 0.000000
22.690909 51.563636 0.000000
21.818182 51.272727 0.000000
20.945455 50.981818 0.000000
20.072727 50.690909 0.000000
19.200000 50.400000 0.000000
18.327273 50.109091 0.000000
17.454545 49.818182 0.000000
16.581818 49.527273 0.000000
15.709091 49.236364 0.000000
14.836364 48.945455 0.000000
13.963636 48.654545 0.000000
13.090909 48.363636 0.000000
12.218182 48.072727 0.000000
11.345455 47.781818 0.000000
10.472727 47.490909 0.000000
9.600000 47.200000 0.000000
8.727273 46.909091 0.000000
7.854545 46.618182 0.000000
6.981818 46.327273 0.000000
6.109091 46.036364 0.000000
5.236364 45.745455 0.000000
4.363636 45.454545 0.000000
3.490909 45.163636 0.000000
2.618182 44.872727 0.000000
1.745455 44.581818 0.000000
0.872727 44.290909 0.000000
0.000000 43.200000 0.000000
0.000000 42.400000 0.000000
0.000000 41.600000 0.000000
0.000000 40.800000 0.000000
0.000000 40.000000 0.000000
0.000000 39.200000 0.000000
0.000000 38.400000 0.000000
0.000000 37.600000 0.000000
0.000000 36.800000 0.000000
0.000000 36.000000 0.000000
0.000000 35.200000 0.000000
0.000000 34.400000 0.000000
0.000000 33.600000 0.000000
0.000000 32.800000 0.000000
0.000000 32.000000 0.000000
0.000000 31.200000 0.000000
0.000000 30.400000 0.000000
0.000000 29.600000 0.000000
0.000000 28.800000 0.000000
0.000000 28.000000 0.000000
0.000000 27.200000 0.000000
0.000000 26.400000 0.000000
0.000000 25.600000 0.000000
0.000000 24.800000 0.000000
0.000000 24.000000 0.000000
0.000000 23.200000 0.000000
0.000000 22.400000 0.000000
0.000000 21.600000 0.000000
0.000000 20.800000 0.000000
0.000000 20.000000 0.000000
0.000000 19.200000 0.000000
0.000000 18.400000 0.000000
0.000000 17.600000 0.000000
0.000000 16.800000 0.000000
0.000000 16.000000 0.000000
0.000000 15.200000 0.000000
0.000000 14.400000 0.000000
0.000000 13.600000 0.000000
0.000000 12.800000 0.000000
0.000000 12.000000 0.000000
0.000000 11.200000 0.000000
0.000000 10.400000 0.000000
0.000000 9.600000 0.000000
0.000000 8.800000 0.000000
0.000000 8.000000 0.000000
0.000000 7.200000 0.000000
0.000000 6.400000 0.000000
0.000000 5.600000 0.000000
0.000000 4.800000 0.000000
0.000000 4.000000 0.000000
0.000000 3.200000 0.000000
0.000000 2.400000 0.000000
0.000000 1.600000 0.000000
0.000000 0.800000 0.000000
0.694258 14.149242 0.000000
0.585552 13.195906 0.000000
1.294127 13.432843 0.000000
3.945012 44.548794 0.000000
3.208568 44.415171 0.000000
4.253170 43.971445 0.000000
4.811175 44.705668 0.000000
39.397800 53.513213 0.000000
39.878707 52.860192 0.000000
40.192389 53.695448 0.000000
40.641925 53.171124 0.000000
7.645820 45.821368 0.000000
6.908434 45.718696 0.000000
7.332052 45.178658 0.000000
37.768710 47.406893 0.000000
38.103949 46.473663 0.000000
38.752058 47.374558 0.000000
39.035748 46.393027 0.000000
31.779879 48.682443 0.000000
32.443003 49.345434 0.000000
31.283875 49.716388 0.000000
32.079740 50.226328 0.000000
5.794443 41.746877 0.000000
5.796105 41.148240 0.000000
6.451731 41.350370 0.000000
6.266310 40.539650 0.000000
2.618474 18.806372 0.000000
2.880598 19.689706 0.000000
2.240131 19.463837 0.000000
3.535938 19.198551 0.000000
20.679625 41.238769 0.000000
21.649077 41.097435 0.000000
21.212439 42.109900 0.000000
46.092049 49.457252 0.000000
46.766904 49.687382 0.000000
46.176057 50.229733 0.000000
22.313225 41.831085 0.000000
18.064072 32.926502 0.000000
17.275358 33.512162 0.000000
17.273543 32.532041 0.000000
37.164174 55.197491 0.000000
37.864513 55.314664 0.000000
37.473901 55.829333 0.000000
9.762751 23.811158 0.000000
9.500261 22.810664 0.000000
10.611761 23.306359 0.000000
45.705401 57.893364 0.000000
46.052695 58.558345 0.000000
45.165595 58.311112 0.000000
37.900548 54.415040 0.000000
10.518799 24.273470 0.000000
10.762426 25.077748 0.000000
9.970961 24.693481 0.000000
46.294695 57.791929 0.000000
2.437401 17.410921 0.000000
1.659453 17.312549 0.000000
2.286490 16.799822 0.000000
1.842203 18.062493 0.000000
7.445192 13.471215 0.000000
7.109020 12.651606 0.000000
8.156381 12.615359 0.000000
12.029410 24.260251 0.000000
12.680435 23.744023 0.000000
12.902330 24.648249 0.000000
11.746475 23.518024 0.000000
24.604336 28.456658 0.000000
25.190330 27.640606 0.000000
25.637730 28.565582 0.000000
6.353380 13.223196 0.000000
26.232608 27.440434 0.000000
13.855042 20.101601 0.000000
13.259925 20.454657 0.000000
12.899019 19.707948 0.000000
13.739721 21.077232 0.000000
46.518255 48.842045 0.000000
45.625723 48.832374 0.000000
16.480017 32.962893 0.000000
5.623249 28.531920 0.000000
6.347279 28.898954 0.000000
5.585954 29.334965 0.000000
6.483136 29.652545 0.000000
5.523814 39.113026 0.000000
6.241984 39.165538 0.000000
5.862050 39.829584 0.000000
6.092849 38.507078 0.000000
15.963610 44.606522 0.000000
15.090775 44.034820 0.000000
15.714314 43.530652 0.000000
9.296400 43.728660 0.000000
9.164168 44.557968 0.000000
8.360800 44.029826 0.000000
19.737669 23.876084 0.000000
20.369190 24.644551 0.000000
19.289604 25.087764 0.000000
32.602507 47.477466 0.000000
32.075366 48.035092 0.000000
31.883695 47.104506 0.000000
32.905535 48.354266 0.000000
14.866451 44.796130 0.000000
30.152695 52.690946 0.000000
30.837261 53.180322 0.000000
30.152893 53.415505 0.000000
11.123304 25.930974 0.000000
11.985477 26.125600 0.000000
11.235292 26.822324 0.000000
5.654347 44.212705 0.000000
4.914154 43.745050 0.000000
12.266245 27.012100 0.000000
13.432299 23.160078 0.000000
12.479705 22.900265 0.000000
13.618470 23.885446 0.000000
5.692992 45.104250 0.000000
47.169452 48.200332 0.000000
47.302358 49.068824 0.000000
6.221282 12.107797 0.000000
5.262673 12.974962 0.000000
20.498271 25.580677 0.000000
2.190973 35.958994 0.000000
2.938747 36.099059 0.000000
2.580153 36.896140 0.000000
8.921671 11.701481 0.000000
7.603826 11.836842 0.000000
3.465318 36.491046 0.000000
40.889080 50.463708 0.000000
40.169477 51.129378 0.000000
40.115104 50.178462 0.000000
40.945290 51.489571 0.000000
22.856056 32.632251 0.000000
23.726343 31.944356 0.000000
23.971533 32.910934 0.000000
22.774652 31.449161 0.000000
42.546371 49.185110 0.000000
41.727702 49.806890 0.000000
41.722490 48.797230 0.000000
42.553000 50.211410 0.000000
12.696318 25.373818 0.000000
12.893020 26.141609 0.000000
6.555295 45.168884 0.000000
11.793959 25.147980 0.000000
2.414781 10.225124 0.000000
2.705464 11.235501 0.000000
1.828904 10.741136 0.000000
3.433352 10.594861 0.000000
0.535478 3.066047 0.000000
1.244863 11.178388 0.000000
1.150622 10.487952 0.000000
13.688765 26.129500 0.000000
13.151524 26.762298 0.000000
13.963995 26.990191 0.000000
15.861419 20.092203 0.000000
17.053191 20.414334 0.000000
15.979087 21.033688 0.000000
3.452534 13.543105 0.000000
3.251915 14.480610 0.000000
2.511916 13.940540 0.000000
31.114428 52.055178 0.000000
19.957278 39.145460 0.000000
20.384318 40.283404 0.000000
19.491615 39.992153 0.000000
8.283912 15.410974 0.000000
7.268090 15.713283 0.000000
7.590207 14.569791 0.000000
16.761550 21.364085 0.000000
15.555646 23.884567 0.000000
[...]
POINT_DATA 1900
VECTORS U float
0.000891 0.005045 0.000000
-5.624237 25.964885 0.000000
-20.333412 28.074164 0.000000
-0.198844 0.232437 0.000000
0.008057 0.218052 0.000000
0.016631 0.425141 0.000000
0.022290 0.629551 0.000000
0.027293 0.830230 0.000000
0.032001 1.024580 0.000000
0.037960 1.214280 0.000000
0.048901 1.396792 0.000000
0.063195 1.574303 0.000000
0.086508 1.746048 0.000000
0.115932 1.915011 0.000000
0.154602 2.082198 0.000000
0.201945 2.248537 0.000000
0.258049 2.417859 0.000000
0.322548 2.591504 0.000000
0.394236 2.771331 0.000000
0.472806 2.960015 0.000000
0.556610 3.159196 0.000000
0.644501 3.371065 0.000000
0.734661 3.597483 0.000000
0.825854 3.839742 0.000000
0.915824 4.099609 0.000000
1.003413 4.378083 0.000000
1.086529 4.676359 0.000000
1.163457 4.995349 0.000000
1.232882 5.335664 0.000000
1.292736 5.698061 0.000000
1.341873 6.082554 0.000000
1.379045 6.490127 0.000000
1.402301 6.920248 0.000000
1.411299 7.373430 0.000000
1.404397 7.849874 0.000000
1.380719 8.349167 0.000000
1.339680 8.871648 0.000000
1.279908 9.417165 0.000000
1.201190 9.985732 0.000000
1.102506 10.577196 0.000000
0.983114 11.191657 0.000000
0.842913 11.829134 0.000000
0.680518 12.489405 0.000000
0.495679 13.172612 0.000000
0.288064 13.878800 0.000000
0.056153 14.607691 0.000000
-0.199862 15.359433 0.000000
-0.481292 16.133850 0.000000
-0.788898 16.930803 0.000000
-1.123438 17.749911 0.000000
-1.486066 18.591031 0.000000
-1.877926 19.453141 0.000000
-2.299957 20.335888 0.000000
-2.754862 21.238144 0.000000
-3.243100 22.157597 0.000000
-3.768381 23.092520 0.000000
-4.333194 24.039899 0.000000
-4.941895 24.994889 0.000000
-6.371388 25.994366 0.000000
-7.052248 26.042973 0.000000
-7.714808 26.109555 0.000000
-8.375452 26.193713 0.000000
-9.039801 26.292029 0.000000
-9.709877 26.401379 0.000000
-10.395024 26.518350 0.000000
-11.099201 26.646642 0.000000
-11.822986 26.780760 0.000000
-12.566677 26.919360 0.000000
-13.343936 27.061376 0.000000
-14.153834 27.210604 0.000000
-14.996664 27.360601 0.000000
-15.885468 27.506319 0.000000
-16.827536 27.654556 0.000000
-17.843548 27.810248 0.000000
-18.967957 27.962021 0.000000
-19.776231 26.646118 0.000000
-19.261525 25.473584 0.000000
-18.783612 24.401103 0.000000
-18.333029 23.398863 0.000000
-17.898108 22.445940 0.000000
-17.472844 21.529553 0.000000
-17.055629 20.646251 0.000000
-16.645779 19.792470 0.000000
-16.239410 18.963448 0.000000
-15.836782 18.156858 0.000000
-15.435322 17.373105 0.000000
-15.035404 16.611787 0.000000
-14.636605 15.870864 0.000000
-14.238928 15.152126 0.000000
-13.842216 14.453388 0.000000
-13.446500 13.775976 0.000000
-13.052248 13.119922 0.000000
-12.659602 12.484096 0.000000
-12.269322 11.869454 0.000000
-11.880816 11.274667 0.000000
-11.495372 10.701210 0.000000
-11.112365 10.147544 0.000000
-10.733092 9.613356 0.000000
-10.357169 9.099785 0.000000
-9.984397 8.604972 0.000000
-9.616147 8.129531 0.000000
-9.252022 7.672778 0.000000
-8.891683 7.234271 0.000000
-8.535608 6.814561 0.000000
-8.184540 6.411748 0.000000
-7.837755 6.026524 0.000000
-7.495155 5.658580 0.000000
-7.156957 5.306835 0.000000
-6.824102 4.971768 0.000000
-6.495206 4.651683 0.000000
-6.170114 4.347774 0.000000
-5.850333 4.059159 0.000000
-5.533951 3.784323 0.000000
-5.221959 3.523847 0.000000
-4.913730 3.278458 0.000000
-4.608556 3.044969 0.000000
-4.307144 2.825122 0.000000
-4.009100 2.617918 0.000000
-3.713267 2.424458 0.000000
-3.419865 2.237927 0.000000
-3.128814 2.065053 0.000000
-2.839061 1.904084 0.000000
-2.546250 1.750004 0.000000
-2.260733 1.599147 0.000000
-1.970842 1.453298 0.000000
-1.673213 1.307310 0.000000
-1.362759 1.157263 0.000000
-1.057703 0.978530 0.000000
-0.714789 0.707160 0.000000
0.018172 -0.019642 0.000000
0.001246 -0.001135 0.000000
0.002275 0.003238 0.000000
-0.003612 0.001852 0.000000
0.003790 0.000457 0.000000
0.000753 -0.003676 0.000000
0.000679 -0.001059 0.000000
-0.002274 0.002350 0.000000
0.001205 0.001983 0.000000
0.000340 -0.001663 0.000000
0.000857 0.000795 0.000000
0.001767 0.000880 0.000000
0.000833 0.000398 0.000000
0.000977 -0.000713 0.000000
-0.000595 -0.000806 0.000000
0.001133 0.000390 0.000000
0.000504 0.000536 0.000000
-0.000093 -0.001220 0.000000
-0.000669 0.000988 0.000000
0.000773 0.000469 0.000000
-0.000947 -0.000747 0.000000
-0.000072 -0.000421 0.000000
0.000122 -0.000133 0.000000
0.000277 0.000333 0.000000
0.000025 -0.000601 0.000000
0.000379 -0.000486 0.000000
-0.000547 0.000302 0.000000
0.000619 0.000135 0.000000
-0.000706 0.000303 0.000000
-0.000780 -0.000463 0.000000
-0.000223 0.000556 0.000000
-0.000333 0.000084 0.000000
-0.000589 -0.000111 0.000000
-0.000086 -0.000278 0.000000
-0.000095 0.000588 0.000000
0.000077 -0.000005 0.000000
-0.000343 0.000340 0.000000
-0.000195 -0.000278 0.000000
0.000280 0.000045 0.000000
-0.000121 0.000223 0.000000
-0.000017 0.000022 0.000000
0.000084 -0.000229 0.000000
0.000127 0.000405 0.000000
-0.000262 -0.000374 0.000000
-0.000102 -0.000058 0.000000
0.000026 -0.000172 0.000000
0.000169 -0.000427 0.000000
-0.000392 0.000165 0.000000
-0.000010 0.000114 0.000000
0.000112 0.000137 0.000000
0.000664 -0.000118 0.000000
0.000384 -0.000369 0.000000
0.000572 0.000636 0.000000
-0.000272 -0.000668 0.000000
0.006950 0.136725 0.000000
0.005406 0.121792 0.000000
0.016529 0.263526 0.000000
-1.523045 1.230022 0.000000
-1.310155 1.122800 0.000000
-1.369869 1.144712 0.000000
-1.765119 1.357441 0.000000
-12.373680 17.934596 0.000000
-11.834174 18.324185 0.000000
-12.604567 18.682888 0.000000
-12.168302 19.068308 0.000000
-2.763260 1.891436 0.000000
-2.579406 1.779898 0.000000
-2.450434 1.734191 0.000000
-7.379219 15.975070 0.000000
-6.752947 16.198952 0.000000
-7.431412 16.847019 0.000000
-6.764938 17.029898 0.000000
-7.767326 11.411786 0.000000
-8.308894 11.937281 0.000000
-8.456137 11.180970 0.000000
-8.920879 11.774796 0.000000
-1.015320 0.900572 0.000000
-0.872293 0.797415 0.000000
-1.034707 0.930194 0.000000
-0.818491 0.772769 0.000000
0.066278 0.362965 0.000000
0.079006 0.367791 0.000000
0.051843 0.286043 0.000000
0.109452 0.486511 0.000000
-2.629428 4.767003 0.000000
-2.637150 5.169143 0.000000
-3.045415 5.052931 0.000000
-9.592306 24.404414 0.000000
-9.837025 25.149804 0.000000
-10.187954 24.576938 0.000000
-3.003413 5.512323 0.000000
0.026145 3.444100 0.000000
-0.095170 3.152051 0.000000
0.098610 3.152452 0.000000
-13.711560 16.164329 0.000000
-13.902424 16.759464 0.000000
-14.356474 16.489557 0.000000
0.525326 1.328139 0.000000
0.519111 1.341516 0.000000
0.597378 1.560002 0.000000
-17.270251 24.703035 0.000000
-18.103983 25.162696 0.000000
-17.742180 24.090583 0.000000
-13.057053 16.698274 0.000000
0.572017 1.469870 0.000000
0.567998 1.473599 0.000000
0.522518 1.313936 0.000000
-17.182073 25.426378 0.000000
0.056168 0.382312 0.000000
0.029946 0.259606 0.000000
0.049363 0.376116 0.000000
0.036430 0.269570 0.000000
0.250893 1.504330 0.000000
0.213178 1.467947 0.000000
0.258637 1.689551 0.000000
0.681638 1.846362 0.000000
0.741755 2.054043 0.000000
0.730778 2.054785 0.000000
0.678540 1.824220 0.000000
0.965241 6.433507 0.000000
1.093999 6.759250 0.000000
0.979419 6.979209 0.000000
0.192572 1.288434 0.000000
1.150838 7.330855 0.000000
0.846534 2.620569 0.000000
0.808739 2.434842 0.000000
0.773014 2.388142 0.000000
0.847389 2.525398 0.000000
-9.175571 24.792569 0.000000
-9.078647 23.841842 0.000000
0.013554 2.868814 0.000000
0.165317 0.289914 0.000000
0.188388 0.377771 0.000000
0.145012 0.252092 0.000000
0.170070 0.368620 0.000000
-0.463923 0.460509 0.000000
-0.561672 0.584268 0.000000
-0.621071 0.605925 0.000000
-0.445985 0.487341 0.000000
-3.608726 3.430791 0.000000
-3.244961 3.110893 0.000000
-3.111557 3.227166 0.000000
-2.261146 1.777946 0.000000
-2.547598 1.892439 0.000000
-2.208510 1.677268 0.000000
1.173595 4.369651 0.000000
1.170162 4.591758 0.000000
1.093450 4.142076 0.000000
-7.010072 11.878292 0.000000
-7.344478 11.555453 0.000000
-6.697330 11.340319 0.000000
-7.644133 12.173178 0.000000
-3.542774 3.148412 0.000000
-10.588420 10.815976 0.000000
-11.085950 11.312170 0.000000
-11.177475 10.919100 0.000000
0.562413 1.507044 0.000000
0.609630 1.715396 0.000000
0.529890 1.481753 0.000000
-1.758829 1.350845 0.000000
-1.435024 1.172993 0.000000
0.580378 1.739092 0.000000
0.808665 2.300445 0.000000
0.743771 2.058045 0.000000
0.804563 2.305278 0.000000
-2.099347 1.528240 0.000000
-8.768562 25.408393 0.000000
-9.429251 25.644575 0.000000
0.162536 1.303113 0.000000
0.139978 1.074236 0.000000
1.118913 4.608322 0.000000
-0.025686 -0.084825 0.000000
-0.047257 -0.050813 0.000000
-0.055731 -0.050561 0.000000
0.256696 1.883743 0.000000
0.210753 1.601744 0.000000
-0.077322 -0.000826 0.000000
-9.918974 19.100018 0.000000
-10.396383 18.461337 0.000000
-9.632870 18.334287 0.000000
-10.752095 19.234583 0.000000
0.127238 5.494681 0.000000
0.296832 5.926089 0.000000
0.070002 6.042364 0.000000
0.388673 5.467066 0.000000
-9.064789 20.647365 0.000000
-9.471997 19.873568 0.000000
-8.705872 19.784910 0.000000
-9.852150 20.740022 0.000000
0.688899 1.952181 0.000000
0.665895 1.960063 0.000000
-2.296048 1.634031 0.000000
0.636970 1.726603 0.000000
0.028315 0.542736 0.000000
0.038924 0.590498 0.000000
0.019963 0.408795 0.000000
0.051478 0.757578 0.000000
0.002934 0.127760 0.000000
0.012048 0.277420 0.000000
0.010009 0.261549 0.000000
0.715481 2.187528 0.000000
0.646565 1.997497 0.000000
0.678157 2.221730 0.000000
0.977219 3.204856 0.000000
1.052862 3.564502 0.000000
0.997699 3.189272 0.000000
0.076383 0.691182 0.000000
0.075303 0.622910 0.000000
0.047715 0.494839 0.000000
-10.214540 11.340929 0.000000
-1.767643 4.343449 0.000000
-2.221830 4.582568 0.000000
-2.052817 4.206734 0.000000
0.349929 1.583448 0.000000
0.295217 1.355418 0.000000
0.287594 1.482617 0.000000
1.047518 3.420926 0.000000
0.934658 2.888728 0.000000
0.915138 2.755831 0.000000
0.978909 3.041567 0.000000
0.928706 2.799066 0.000000
-7.184236 8.823036 0.000000
-6.657318 9.005696 0.000000
-7.221443 9.391074 0.000000
-6.676536 8.430817 0.000000
-1.915350 4.799090 0.000000
0.090852 1.130231 0.000000
0.067924 1.083265 0.000000
0.089601 1.292199 0.000000
0.063538 0.944546 0.000000
0.019684 -0.005741 0.000000
0.023460 -0.016725 0.000000
0.006947 -0.020977 0.000000
-4.783403 20.380542 0.000000
-4.661100 21.393656 0.000000
-5.211960 21.022022 0.000000
0.114376 1.546126 0.000000
0.101680 1.661121 0.000000
0.137647 1.798763 0.000000
-5.273431 22.034116 0.000000
-5.882929 6.965206 0.000000
-5.419455 7.094966 0.000000
-5.947702 7.430874 0.000000
-5.358115 6.633792 0.000000
-0.030346 -0.080349 0.000000
-0.014105 -0.087508 0.000000
-0.016728 -0.077617 0.000000
-1.393633 10.088650 0.000000
-1.305010 9.493919 0.000000
-0.954337 9.944324 0.000000
-0.928238 9.396600 0.000000
0.505062 4.536160 0.000000
0.363965 4.025602 0.000000
0.589732 4.096669 0.000000
0.016295 -0.034358 0.000000
0.015037 0.460279 0.000000
0.027424 0.686330 0.000000
0.024551 0.562772 0.000000
-11.448243 22.771635 0.000000
-12.171020 23.546015 0.000000
-12.069945 22.374461 0.000000
1.006898 3.500857 0.000000
1.070612 3.888646 0.000000
1.364943 6.244016 0.000000
1.330774 5.732026 0.000000
1.119014 4.012544 0.000000
1.166389 4.178801 0.000000
1.102601 3.762217 0.000000
-11.664266 13.717684 0.000000
-11.765071 14.354659 0.000000
-12.251062 13.982667 0.000000
0.001390 -0.051686 0.000000
0.002330 -0.050513 0.000000
0.007184 -0.078813 0.000000
0.175589 1.105428 0.000000
0.232657 1.237779 0.000000
0.180012 0.997732 0.000000
0.002682 0.140372 0.000000
0.004183 0.221070 0.000000
0.005662 0.296674 0.000000
0.008254 0.400646 0.000000
1.106744 4.269125 0.000000
0.447652 1.549596 0.000000
0.367974 1.346254 0.000000
0.398143 1.518994 0.000000
-9.573315 22.454044 0.000000
-9.901527 21.695107 0.000000
-9.300685 21.490361 0.000000
-10.282543 22.375364 0.000000
0.117007 0.767354 0.000000
0.146249 0.803405 0.000000
-8.683661 21.276339 0.000000
-8.317365 20.520219 0.000000
-4.012997 4.288334 0.000000
-3.842634 4.483296 0.000000
-4.272640 4.629827 0.000000
0.057977 1.265062 0.000000
0.051692 1.342447 0.000000
0.072123 1.502848 0.000000
-3.961529 4.763516 0.000000
0.462193 1.129095 0.000000
0.489103 1.224716 0.000000
0.470663 1.156031 0.000000
0.512834 1.324348 0.000000
0.451667 1.138041 0.000000
0.488189 1.295793 0.000000
0.958418 2.958063 0.000000
0.999428 3.139979 0.000000
0.923038 2.868857 0.000000
1.059663 3.451494 0.000000
1.009506 3.243842 0.000000
0.341483 0.978943 0.000000
0.300327 0.838586 0.000000
0.275924 0.823810 0.000000
0.240732 0.683545 0.000000
-3.355377 3.840161 0.000000
-3.292033 3.513199 0.000000
-2.921207 3.542952 0.000000
-2.939470 3.321760 0.000000
-6.412491 5.867430 0.000000
-6.101713 6.001288 0.000000
-6.602096 6.231719 0.000000
-5.885437 5.690559 0.000000
-6.703053 6.609754 0.000000
-7.207909 6.512228 0.000000
-16.775913 23.904975 0.000000
-16.461009 24.693003 0.000000
0.007029 0.345139 0.000000
0.003768 0.183955 0.000000
0.003692 0.190074 0.000000
-17.255563 23.102512 0.000000
-7.349547 6.903438 0.000000
-14.524100 17.059815 0.000000
0.002968 0.157319 0.000000
0.807962 3.557333 0.000000
0.898203 3.790491 0.000000
0.875853 3.495570 0.000000
-8.250163 8.967450 0.000000
-8.352622 9.546724 0.000000
-8.816571 9.320961 0.000000
-4.745974 23.064420 0.000000
-5.072581 23.990639 0.000000
-5.632857 23.305436 0.000000
-5.630123 24.528338 0.000000
-7.770147 9.275122 0.000000
-12.238393 17.080844 0.000000
-13.085011 17.616005 0.000000
-11.581488 17.522769 0.000000
-16.455245 25.471939 0.000000
-0.103425 0.017630 0.000000
-0.098447 0.014077 0.000000
-0.159076 0.094574 0.000000
-0.138481 0.092088 0.000000
-2.411262 3.744265 0.000000
-2.285696 4.010938 0.000000
-2.694030 4.117923 0.000000
0.026015 0.959614 0.000000
0.026860 0.979173 0.000000
0.018772 0.787270 0.000000
-15.602352 26.776332 0.000000
-16.227377 26.887422 0.000000
-15.889804 25.995095 0.000000
-2.492797 4.377624 0.000000
-15.746870 24.952274 0.000000
-15.232870 25.299337 0.000000
-10.245211 19.915075 0.000000
-15.082102 26.125475 0.000000
-9.098827 18.919174 0.000000
-13.598843 15.496649 0.000000
0.996214 7.554330 0.000000
0.809776 7.267443 0.000000
0.764315 6.663064 0.000000
-0.679390 14.222372 0.000000
-0.332158 14.455150 0.000000
-0.605262 15.004756 0.000000
0.021088 0.776554 0.000000
0.012366 0.528104 0.000000
0.013880 0.616473 0.000000
-3.748001 6.811367 0.000000
-3.950776 7.298516 0.000000
-4.317172 6.967838 0.000000
-4.432681 7.542972 0.000000
-3.927259 6.442115 0.000000
-4.389025 6.547352 0.000000
-0.025246 0.040808 0.000000
0.044486 0.520093 0.000000
0.030661 0.391874 0.000000
0.025526 0.378170 0.000000
0.008593 0.424349 0.000000
-10.949638 17.947205 0.000000
-11.087146 18.614472 0.000000
-10.152010 17.645207 0.000000
-11.535124 19.128502 0.000000
-0.677800 2.180051 0.000000
-0.964312 2.424259 0.000000
-0.897682 2.149432 0.000000
-16.203937 23.277681 0.000000
-15.824257 24.094111 0.000000
0.013075 0.246582 0.000000
-17.114672 22.168612 0.000000
0.029909 0.968375 0.000000
0.037315 1.162332 0.000000
-0.849930 1.903818 0.000000
-0.673883 1.727111 0.000000
-0.729052 1.977712 0.000000
0.040375 1.111729 0.000000
0.029637 0.889543 0.000000
-12.364609 14.774053 0.000000
-12.987128 14.226893 0.000000
1.012078 3.420424 0.000000
0.920543 3.153090 0.000000
0.938789 3.019148 0.000000
0.973076 3.472079 0.000000
0.882126 2.732519 0.000000
0.863647 2.573300 0.000000
0.020350 0.111418 0.000000
0.007035 0.050123 0.000000
0.009459 0.074171 0.000000
-7.546453 23.998166 0.000000
-7.382449 24.691064 0.000000
-7.862048 24.713892 0.000000
-7.771226 25.377931 0.000000
-7.862829 23.167407 0.000000
-6.995941 23.016863 0.000000
-7.480042 22.183149 0.000000
-6.636545 10.588106 0.000000
-7.151748 10.450198 0.000000
-6.634136 9.984565 0.000000
-7.354672 10.013759 0.000000
0.019219 0.663977 0.000000
0.201269 0.424329 0.000000
0.220552 0.450303 0.000000
0.178373 0.352185 0.000000
0.981561 3.758561 0.000000
0.852921 3.555413 0.000000
0.897076 3.326409 0.000000
0.257728 0.562524 0.000000
0.244379 0.498253 0.000000
0.262026 0.554784 0.000000
0.180851 0.335436 0.000000
-14.343035 26.218584 0.000000
0.122346 0.228886 0.000000
0.144546 0.374152 0.000000
0.095512 0.239518 0.000000
-15.082004 24.445818 0.000000
-14.532022 25.132046 0.000000
0.105528 0.381419 0.000000
1.227976 4.627294 0.000000
1.235718 4.875334 0.000000
1.157354 4.105387 0.000000
-9.112058 22.857402 0.000000
-8.552961 23.122627 0.000000
-9.691020 23.579841 0.000000
0.004978 0.206312 0.000000
0.010304 0.411364 0.000000
-8.143033 22.430283 0.000000
0.246855 0.512863 0.000000
0.192890 0.357336 0.000000
0.295494 0.652319 0.000000
0.043274 0.054476 0.000000
0.064441 0.083786 0.000000
0.039254 0.031522 0.000000
0.017791 0.574305 0.000000
0.009778 0.365956 0.000000
0.005914 0.232819 0.000000
0.043614 1.032649 0.000000
0.029128 0.795295 0.000000
0.068899 0.074340 0.000000
-3.030520 8.549150 0.000000
-2.980551 9.091472 0.000000
-3.292399 8.856467 0.000000
-3.364599 9.442654 0.000000
-15.523883 22.695021 0.000000
-15.259633 23.538323 0.000000
-2.660950 8.588100 0.000000
-16.368352 22.437932 0.000000
-16.428442 21.467923 0.000000
0.062814 1.178207 0.000000
0.044521 0.931251 0.000000
-2.549001 9.189389 0.000000
0.265306 0.740868 0.000000
0.337771 0.933865 0.000000
0.301219 0.970003 0.000000
-0.021661 0.012349 0.000000
0.303272 0.748717 0.000000
-13.666882 26.163254 0.000000
-0.075154 0.102525 0.000000
-0.174076 0.229864 0.000000
-0.116847 0.196378 0.000000
-0.306442 0.419488 0.000000
0.325908 1.179418 0.000000
0.252256 1.003736 0.000000
-13.889995 24.524027 0.000000
-13.910078 25.394425 0.000000
-14.536989 24.014279 0.000000
0.256297 1.211053 0.000000
-0.886473 0.884939 0.000000
-0.607481 0.670425 0.000000
-1.069675 0.979629 0.000000
0.106899 0.791512 0.000000
0.081489 1.417111 0.000000
-1.155619 3.790460 0.000000
-1.067191 3.415271 0.000000
-0.934005 3.649360 0.000000
-0.753604 3.290115 0.000000
-0.489443 5.787665 0.000000
-0.704313 5.615031 0.000000
-0.497510 5.311208 0.000000
0.043151 0.822433 0.000000
-0.764149 5.209777 0.000000
0.121202 0.908266 0.000000
-15.735718 21.988242 0.000000
-14.913602 22.142579 0.000000
-14.637731 23.009776 0.000000
0.146131 0.232357 0.000000
-7.018921 12.414755 0.000000
-6.474232 12.554359 0.000000
-6.988915 13.099822 0.000000
-6.280137 13.159868 0.000000
-2.276031 12.166399 0.000000
-2.152010 11.522985 0.000000
-1.807593 11.955250 0.000000
-2.572456 11.476795 0.000000
-1.109848 9.001479 0.000000
-1.439360 8.950254 0.000000
0.753073 2.771553 0.000000
0.798369 3.019600 0.000000
0.839342 2.904685 0.000000
-0.555696 0.668589 0.000000
-5.053759 4.323370 0.000000
-5.075879 4.637731 0.000000
-5.564114 4.621321 0.000000
-5.580900 4.871173 0.000000
-4.590937 4.241158 0.000000
0.868980 3.209086 0.000000
-4.501485 4.444482 0.000000
0.317335 0.724774 0.000000
0.275952 0.628237 0.000000
0.325992 0.779291 0.000000
-13.342024 25.119855 0.000000
-12.957991 25.958252 0.000000
0.124102 1.385806 0.000000
-13.098135 23.880852 0.000000
-13.894883 23.478572 0.000000
0.005741 0.182293 0.000000
0.010919 0.328287 0.000000
0.013910 0.350610 0.000000
0.269303 0.647980 0.000000
0.349689 0.799529 0.000000
0.298636 0.658530 0.000000
0.308509 0.677794 0.000000
0.453959 1.259527 0.000000
0.489804 1.471148 0.000000
0.317525 9.385891 0.000000
0.576860 9.179312 0.000000
0.615852 9.901828 0.000000
0.040372 0.717246 0.000000
0.514910 1.711772 0.000000
0.434168 1.471569 0.000000
-10.820439 23.171518 0.000000
-10.850633 22.325211 0.000000
0.383909 0.958567 0.000000
0.316336 0.797658 0.000000
0.789577 9.477666 0.000000
-15.343056 21.361210 0.000000
-15.884672 20.420587 0.000000
-1.118115 0.987219 0.000000
-0.775159 0.761997 0.000000
-14.398266 21.563666 0.000000
-14.077738 22.493344 0.000000
-8.476624 10.037226 0.000000
-7.901703 9.775162 0.000000
-8.871340 9.826709 0.000000
1.007596 3.704774 0.000000
1.035069 3.983834 0.000000
0.157384 1.649089 0.000000
0.163513 1.483723 0.000000
0.122132 1.202446 0.000000
0.184106 1.937542 0.000000
0.983924 4.032649 0.000000
1.058649 4.287969 0.000000
0.082590 0.962160 0.000000
-12.607452 24.816524 0.000000