# vtk DataFile Version 2.0
cantilever_Q4P1_mix
ASCII
DATASET POLYDATA
POINTS 27 float
0.000000 -6.000000 0.000000
48.000000 -6.000000 0.000000
48.000000 6.000000 0.000000
0.000000 6.000000 0.000000
12.000000 -6.000000 0.000000
24.000000 -6.000000 0.000000
36.000000 -6.000000 0.000000
6.000000 -6.000000 0.000000
18.000000 -6.000000 0.000000
30.000000 -6.000000 0.000000
42.000000 -6.000000 0.000000
48.000000 -0.000000 0.000000
36.000000 6.000000 0.000000
24.000000 6.000000 0.000000
12.000000 6.000000 0.000000
42.000000 6.000000 0.000000
30.000000 6.000000 0.000000
18.000000 6.000000 0.000000
6.000000 6.000000 0.000000
0.000000 0.000000 0.000000
6.000000 0.000000 0.000000
12.000000 0.000000 0.000000
18.000000 0.000000 0.000000
24.000000 0.000000 0.000000
30.000000 0.000000 0.000000
36.000000 0.000000 0.000000
42.000000 0.000000 0.000000
POLYGONS 8 56
6 0 4 3 7 20 19
6 3 4 14 20 21 18
6 4 5 14 8 22 21
6 14 5 13 22 23 17
6 5 6 13 9 24 23
6 13 6 12 24 25 16
6 6 1 12 10 26 25
6 12 1 2 26 11 15
POINT_DATA 27
VECTORS U float
-0.010479 -0.001369 0.000000
0.008478 0.061942 0.000000
-0.010719 0.069093 0.000000
-0.004862 0.003919 0.000000
-0.035456 0.006269 0.000000
-0.022742 0.033936 0.000000
-0.003571 0.035915 0.000000
0.032202 0.008491 0.000000
0.047877 0.007103 0.000000
0.033573 0.029417 0.000000
0.021076 0.069229 0.000000
-0.000881 0.073692 0.000000
-0.012478 0.065916 0.000000
-0.042231 0.066249 0.000000
-0.039597 0.030597 0.000000
-0.015737 0.049075 0.000000
0.005329 -0.003830 0.000000
0.033018 -0.022348 0.000000
0.015379 -0.007020 0.000000
0.006286 0.002370 0.000000
-0.019405 -0.002161 0.000000
0.028749 0.001732 0.000000
-0.024656 0.035719 0.000000
0.010728 -0.011664 0.000000
0.003819 0.060319 0.000000
-0.010218 0.034551 0.000000
0.006703 0.051677 0.000000
CELL_DATA 8
SCALARS P float 1
LOOKUP_TABLE default
-6.393145
-7.023345
-168.385657
-330.055868
24.256676
-92.585632
705.512959
-56.753907
