# vtk DataFile Version 2.0
cantilever_tri3_mix
ASCII
DATASET POLYDATA
POINTS 85 float
0.000000 -6.000000 0.000000
48.000000 -6.000000 0.000000
48.000000 6.000000 0.000000
0.000000 6.000000 0.000000
3.000000 -6.000000 0.000000
6.000000 -6.000000 0.000000
9.000000 -6.000000 0.000000
12.000000 -6.000000 0.000000
15.000000 -6.000000 0.000000
18.000000 -6.000000 0.000000
21.000000 -6.000000 0.000000
24.000000 -6.000000 0.000000
27.000000 -6.000000 0.000000
30.000000 -6.000000 0.000000
33.000000 -6.000000 0.000000
36.000000 -6.000000 0.000000
39.000000 -6.000000 0.000000
42.000000 -6.000000 0.000000
45.000000 -6.000000 0.000000
48.000000 -3.000000 0.000000
48.000000 -0.000000 0.000000
48.000000 3.000000 0.000000
45.000000 6.000000 0.000000
42.000000 6.000000 0.000000
39.000000 6.000000 0.000000
36.000000 6.000000 0.000000
33.000000 6.000000 0.000000
30.000000 6.000000 0.000000
27.000000 6.000000 0.000000
24.000000 6.000000 0.000000
21.000000 6.000000 0.000000
18.000000 6.000000 0.000000
15.000000 6.000000 0.000000
12.000000 6.000000 0.000000
9.000000 6.000000 0.000000
6.000000 6.000000 0.000000
3.000000 6.000000 0.000000
0.000000 3.000000 0.000000
0.000000 0.000000 0.000000
0.000000 -3.000000 0.000000
3.000000 -3.000000 0.000000
3.000000 0.000000 0.000000
3.000000 3.000000 0.000000
6.000000 -3.000000 0.000000
6.000000 0.000000 0.000000
6.000000 3.000000 0.000000
9.000000 -3.000000 0.000000
9.000000 0.000000 0.000000
9.000000 3.000000 0.000000
12.000000 -3.000000 0.000000
12.000000 0.000000 0.000000
12.000000 3.000000 0.000000
15.000000 -3.000000 0.000000
15.000000 0.000000 0.000000
15.000000 3.000000 0.000000
18.000000 -3.000000 0.000000
18.000000 0.000000 0.000000
18.000000 3.000000 0.000000
21.000000 -3.000000 0.000000
21.000000 0.000000 0.000000
21.000000 3.000000 0.000000
24.000000 -3.000000 0.000000
24.000000 -0.000000 0.000000
24.000000 3.000000 0.000000
27.000000 -3.000000 0.000000
27.000000 -0.000000 0.000000
27.000000 3.000000 0.000000
30.000000 -3.000000 0.000000
30.000000 -0.000000 0.000000
30.000000 3.000000 0.000000
33.000000 -3.000000 0.000000
33.000000 -0.000000 0.000000
33.000000 3.000000 0.000000
36.000000 -3.000000 0.000000
36.000000 -0.000000 0.000000
36.000000 3.000000 0.000000
39.000000 -3.000000 0.000000
39.000000 -0.000000 0.000000
39.000000 3.000000 0.000000
42.000000 -3.000000 0.000000
42.000000 -0.000000 0.000000
42.000000 3.000000 0.000000
45.000000 -3.000000 0.000000
45.000000 -0.000000 0.000000
45.000000 3.000000 0.000000
POLYGONS 128 512
3 0 4 39
3 39 4 40
3 39 40 38
3 38 40 41
3 38 41 37
3 37 41 42
3 37 42 3
3 3 42 36
3 4 5 40
3 40 5 43
3 40 43 41
3 41 43 44
3 41 44 42
3 42 44 45
3 42 45 36
3 36 45 35
3 5 6 43
3 43 6 46
3 43 46 44
3 44 46 47
3 44 47 45
3 45 47 48
3 45 48 35
3 35 48 34
3 6 7 46
3 46 7 49
3 46 49 47
3 47 49 50
3 47 50 48
3 48 50 51
3 48 51 34
3 34 51 33
3 7 8 49
3 49 8 52
3 49 52 50
3 50 52 53
3 50 53 51
3 51 53 54
3 51 54 33
3 33 54 32
3 8 9 52
3 52 9 55
3 52 55 53
3 53 55 56
3 53 56 54
3 54 56 57
3 54 57 32
3 32 57 31
3 9 10 55
3 55 10 58
3 55 58 56
3 56 58 59
3 56 59 57
3 57 59 60
3 57 60 31
3 31 60 30
3 10 11 58
3 58 11 61
3 58 61 59
3 59 61 62
3 59 62 60
3 60 62 63
3 60 63 30
3 30 63 29
3 11 12 61
3 61 12 64
3 61 64 62
3 62 64 65
3 62 65 63
3 63 65 66
3 63 66 29
3 29 66 28
3 12 13 64
3 64 13 67
3 64 67 65
3 65 67 68
3 65 68 66
3 66 68 69
3 66 69 28
3 28 69 27
3 13 14 67
3 67 14 70
3 67 70 68
3 68 70 71
3 68 71 69
3 69 71 72
3 69 72 27
3 27 72 26
3 14 15 70
3 70 15 73
3 70 73 71
3 71 73 74
3 71 74 72
3 72 74 75
3 72 75 26
3 26 75 25
3 15 16 73
3 73 16 76
3 73 76 74
3 74 76 77
3 74 77 75
3 75 77 78
3 75 78 25
3 25 78 24
3 16 17 76
3 76 17 79
3 76 79 77
3 77 79 80
3 77 80 78
3 78 80 81
3 78 81 24
3 24 81 23
3 17 18 79
3 79 18 82
3 79 82 80
3 80 82 83
3 80 83 81
3 81 83 84
3 81 84 23
3 23 84 22
3 18 1 82
3 82 1 19
3 82 19 83
3 83 19 20
3 83 20 84
3 84 20 21
3 84 21 22
3 22 21 2
CELL_DATA 128
SCALARS PRESSURE float 1
LOOKUP_TABLE default
2267617279.851452
-17680398866.949291
26535037429.002186
-16539760091.015779
24451238974.271561
-23858206958.611683
32162778900.351093
-15689528646.940434
15591559307.663010
-21976258437.969040
20797551532.893646
-17112087826.218592
15781124209.605940
-27007615626.162056
26446710695.484653
-17944879941.612072
13273895696.873934
-19619749150.800274
21989124103.654076
-14307360008.189674
17340995757.530266
-22670420944.336163
27083598957.554729
-16470989147.593325
11962993346.948849
-18828417811.434914
19450133248.361828
-14603266223.945621
14422055921.616758
-21884278939.281193
23908909459.581207
-15550498806.722361
11536992422.660805
-16621513059.399012
18652718544.379604
-12728451474.248230
14170772290.770452
-19718171055.116184
22897760555.280914
-14341227638.696857
9799004189.159393
-15249289142.094467
16530031109.268621
-11984416311.642939
12487948196.020725
-18314356540.240791
20831765991.967827
-13301981180.491972
9148995629.874382
-13311723289.928129
15168335035.343307
-10586147235.314619
11598249043.184677
-16511206265.708588
19315020965.178169
-12159851195.725809
7715682556.218502
-11725796562.487082
13322323514.448486
-9550975558.731234
10274102672.030369
-14927698518.373762
17498888308.515709
-11072978776.093849
6808672658.705999
-9920165084.827839
11769390074.697750
-8302169219.105337
9198104513.397524
-13216809224.239258
15840641041.287680
-9945123827.059000
5566562763.924732
-8265556219.101712
10030693386.127872
-7191986546.626482
7972107063.776175
-11588325348.860090
14084982005.563368
-8837796457.755289
4540387342.298370
-6492964492.556684
8422937165.070649
-5965389211.710326
6857987811.085121
-9900297510.784264
12387032238.012707
-7730981493.775052
3377110167.436863
-4864805433.504213
6691638045.824234
-4861207777.539159
5636939447.097287
-8263542206.309259
10644724026.047586
-6554326194.860097
2337913384.292119
-3044807053.291028
5118404692.332633
-3566681555.434951
4548983638.534944
-6605628988.195887
8909664362.548658
-5583800910.660176
1189994230.794744
-1647158824.791076
3265315555.558233
-2488805915.252114
3292995142.949142
-4948649512.863019
7209037434.473119
-4049139088.539544
330553632.452500
409545371.963155
1900934221.307971
-1044142319.041671
2216452384.703204
-3540942296.131246
5366625305.202437
-3734670229.527092
-826377127.024859
128719329.767354
-146283583.899002
522326128.872565
1017965263.524583
-1975123763.445564
3963182102.388207
-605280758.037713
