# vtk DataFile Version 2.0
cantilever_tri3_mix
ASCII
DATASET POLYDATA
POINTS 27 float
0.000000 -6.000000 0.000000
48.000000 -6.000000 0.000000
48.000000 6.000000 0.000000
0.000000 6.000000 0.000000
6.000000 -6.000000 0.000000
12.000000 -6.000000 0.000000
18.000000 -6.000000 0.000000
24.000000 -6.000000 0.000000
30.000000 -6.000000 0.000000
36.000000 -6.000000 0.000000
42.000000 -6.000000 0.000000
48.000000 -0.000000 0.000000
42.000000 6.000000 0.000000
36.000000 6.000000 0.000000
30.000000 6.000000 0.000000
24.000000 6.000000 0.000000
18.000000 6.000000 0.000000
12.000000 6.000000 0.000000
6.000000 6.000000 0.000000
0.000000 0.000000 0.000000
6.000000 0.000000 0.000000
12.000000 0.000000 0.000000
18.000000 0.000000 0.000000
24.000000 0.000000 0.000000
30.000000 -0.000000 0.000000
36.000000 -0.000000 0.000000
42.000000 -0.000000 0.000000
POLYGONS 32 128
3 0 1 2
3 3 4 5
3 6 7 8
3 9 10 11
3 12 13 14
3 15 16 17
3 18 19 20
3 21 22 23
3 24 25 26
3 27 28 29
3 30 31 32
3 33 34 35
3 36 37 38
3 39 40 41
3 42 43 44
3 45 46 47
3 48 49 50
3 51 52 53
3 54 55 56
3 57 58 59
3 60 61 62
3 63 64 65
3 66 67 68
3 69 70 71
3 72 73 74
3 75 76 77
3 78 79 80
3 81 82 83
3 84 85 86
3 87 88 89
3 90 91 92
3 93 94 95
CELL_DATA 32
SCALARS PRESSURE float 1
LOOKUP_TABLE default
13656.633040
10014.140222
7752.567580
7331.675181
7437.954866
6698.746214
6217.213630
5736.737260
9152.571345
6773.163373
6639.541045
5941.865943
5835.034541
5658.491183
5922.753256
5899.405529
3477.483366
4495.640627
4448.269467
5535.931658
5405.339019
5669.506938
5418.170175
5378.552024
-1006.928619
645.583862
2440.817219
3897.365659
4498.274934
4477.311221
4699.747867
5389.047470
