# vtk DataFile Version 2.0
cantilever_tri3_mix
ASCII
DATASET POLYDATA
POINTS 289 float
1.000000 0.000000 0.000000
5.000000 0.000000 0.000000
5.000000 5.000000 0.000000
0.000000 5.000000 0.000000
0.000000 1.000000 0.000000
0.707107 0.707107 0.000000
1.112321 0.000000 0.000000
1.235752 0.000000 0.000000
1.371389 0.000000 0.000000
1.520441 0.000000 0.000000
1.684235 0.000000 0.000000
1.864228 0.000000 0.000000
2.062022 0.000000 0.000000
2.279379 0.000000 0.000000
2.518232 0.000000 0.000000
2.780709 0.000000 0.000000
3.069144 0.000000 0.000000
3.386106 0.000000 0.000000
3.734416 0.000000 0.000000
4.117174 0.000000 0.000000
4.537788 0.000000 0.000000
5.000000 0.438969 0.000000
5.000000 0.921351 0.000000
5.000000 1.451443 0.000000
5.000000 2.033960 0.000000
5.000000 2.674090 0.000000
5.000000 3.377529 0.000000
5.000000 4.150539 0.000000
4.150539 5.000000 0.000000
3.377529 5.000000 0.000000
2.674090 5.000000 0.000000
2.033960 5.000000 0.000000
1.451443 5.000000 0.000000
0.921351 5.000000 0.000000
0.438969 5.000000 0.000000
0.000000 4.537788 0.000000
0.000000 4.117174 0.000000
0.000000 3.734416 0.000000
0.000000 3.386106 0.000000
0.000000 3.069144 0.000000
0.000000 2.780709 0.000000
0.000000 2.518232 0.000000
0.000000 2.279379 0.000000
0.000000 2.062022 0.000000
0.000000 1.864228 0.000000
0.000000 1.684235 0.000000
0.000000 1.520441 0.000000
0.000000 1.371389 0.000000
0.000000 1.235752 0.000000
0.000000 1.112321 0.000000
0.098017 0.995185 0.000000
0.195090 0.980785 0.000000
0.290285 0.956940 0.000000
0.382683 0.923880 0.000000
0.471397 0.881921 0.000000
0.555570 0.831470 0.000000
0.634393 0.773010 0.000000
0.773010 0.634393 0.000000
0.831470 0.555570 0.000000
0.881921 0.471397 0.000000
0.923880 0.382683 0.000000
0.956940 0.290285 0.000000
0.980785 0.195090 0.000000
0.995185 0.098017 0.000000
0.827653 0.827653 0.000000
0.960121 0.960121 0.000000
1.105690 1.105690 0.000000
1.265656 1.265656 0.000000
1.441444 1.441444 0.000000
1.634616 1.634616 0.000000
1.846894 1.846894 0.000000
2.080166 2.080166 0.000000
2.336509 2.336509 0.000000
2.618205 2.618205 0.000000
2.927760 2.927760 0.000000
3.267931 3.267931 0.000000
3.641746 3.641746 0.000000
4.052531 4.052531 0.000000
4.503943 4.503943 0.000000
0.107591 1.107641 0.000000
0.118112 1.231220 0.000000
0.129674 1.367021 0.000000
0.142378 1.516252 0.000000
0.156340 1.680243 0.000000
0.171682 1.860453 0.000000
0.188542 2.058486 0.000000
0.207069 2.276104 0.000000
0.227428 2.515245 0.000000
0.249801 2.778037 0.000000
0.274387 3.066820 0.000000
0.301404 3.384163 0.000000
0.331093 3.732892 0.000000
0.363718 4.116111 0.000000
0.399571 4.537231 0.000000
0.215484 1.093646 0.000000
0.237895 1.217669 0.000000
0.262522 1.353958 0.000000
0.289584 1.503727 0.000000
0.319324 1.668307 0.000000
0.352004 1.849165 0.000000
0.387917 2.047909 0.000000
0.427381 2.266310 0.000000
0.470749 2.506311 0.000000
0.518405 2.770048 0.000000
0.570775 3.059869 0.000000
0.628324 3.378353 0.000000
0.691565 3.728337 0.000000
0.761061 4.112933 0.000000
0.837430 4.535567 0.000000
0.322890 1.070471 0.000000
0.358721 1.195230 0.000000
0.398095 1.332327 0.000000
0.441363 1.482984 0.000000
0.488911 1.648541 0.000000
0.541161 1.830472 0.000000
0.598579 2.030395 0.000000
0.661675 2.250092 0.000000
0.731012 2.491516 0.000000
0.807206 2.756818 0.000000
0.890935 3.048359 0.000000
0.982946 3.368733 0.000000
1.084057 3.720792 0.000000
1.195168 4.107671 0.000000
1.317267 4.532812 0.000000
0.429052 1.038338 0.000000
0.480006 1.164117 0.000000
0.536000 1.302336 0.000000
0.597532 1.454225 0.000000
0.665149 1.621135 0.000000
0.739453 1.804554 0.000000
0.821107 2.006112 0.000000
0.910836 2.227605 0.000000
1.009439 2.471004 0.000000
1.117794 2.738475 0.000000
1.236866 3.032400 0.000000
1.367714 3.355393 0.000000
1.511503 3.710332 0.000000
1.669513 4.100374 0.000000
1.843150 4.528992 0.000000
0.533249 0.997558 0.000000
0.601219 1.124632 0.000000
0.675911 1.264274 0.000000
0.757990 1.417726 0.000000
0.848187 1.586355 0.000000
0.947304 1.771661 0.000000
1.056224 1.975294 0.000000
1.175917 2.199067 0.000000
1.307447 2.444971 0.000000
1.451985 2.715196 0.000000
1.610819 3.012146 0.000000
1.785362 3.338464 0.000000
1.977167 3.697056 0.000000
2.187941 4.091113 0.000000
2.419562 4.524143 0.000000
0.634812 0.948523 0.000000
0.721891 1.077154 0.000000
0.817581 1.218506 0.000000
0.922736 1.373838 0.000000
1.038291 1.544533 0.000000
1.165274 1.732110 0.000000
1.304816 1.938238 0.000000
1.458159 2.164752 0.000000
1.626667 2.413669 0.000000
1.811842 2.687204 0.000000
2.015330 2.987792 0.000000
2.238943 3.318109 0.000000
2.484672 3.681094 0.000000
2.754704 4.079978 0.000000
3.051443 4.518313 0.000000
0.733128 0.891706 0.000000
0.841627 1.022140 0.000000
0.960858 1.165475 0.000000
1.091880 1.322985 0.000000
1.235861 1.496074 0.000000
1.394081 1.686281 0.000000
1.567950 1.895300 0.000000
1.759014 2.124991 0.000000
1.968975 2.377399 0.000000
2.199701 2.654770 0.000000
2.453246 2.959573 0.000000
2.731867 3.294522 0.000000
3.038044 3.662597 0.000000
3.374503 4.067076 0.000000
3.744237 4.511558 0.000000
0.891706 0.733128 0.000000
1.022140 0.841627 0.000000
1.165475 0.960858 0.000000
1.322985 1.091880 0.000000
1.496074 1.235861 0.000000
1.686281 1.394081 0.000000
1.895300 1.567950 0.000000
2.124991 1.759014 0.000000
2.377399 1.968975 0.000000
2.654770 2.199701 0.000000
2.959573 2.453246 0.000000
3.294522 2.731867 0.000000
3.662597 3.038044 0.000000
4.067076 3.374503 0.000000
4.511558 3.744237 0.000000
0.948523 0.634812 0.000000
1.077154 0.721891 0.000000
1.218506 0.817581 0.000000
1.373838 0.922736 0.000000
1.544533 1.038291 0.000000
1.732110 1.165274 0.000000
1.938238 1.304816 0.000000
2.164752 1.458159 0.000000
2.413669 1.626667 0.000000
2.687204 1.811842 0.000000
2.987792 2.015330 0.000000
3.318109 2.238943 0.000000
3.681094 2.484672 0.000000
4.079978 2.754704 0.000000
4.518313 3.051443 0.000000
0.997558 0.533249 0.000000
1.124632 0.601219 0.000000
1.264274 0.675911 0.000000
1.417726 0.757990 0.000000
1.586355 0.848187 0.000000
1.771661 0.947304 0.000000
1.975294 1.056224 0.000000
2.199067 1.175917 0.000000
2.444971 1.307447 0.000000
2.715196 1.451985 0.000000
3.012146 1.610819 0.000000
3.338464 1.785362 0.000000
3.697056 1.977167 0.000000
4.091113 2.187941 0.000000
4.524143 2.419562 0.000000
1.038338 0.429052 0.000000
1.164117 0.480006 0.000000
1.302336 0.536000 0.000000
1.454225 0.597532 0.000000
1.621135 0.665149 0.000000
1.804554 0.739453 0.000000
2.006112 0.821107 0.000000
2.227605 0.910836 0.000000
2.471004 1.009439 0.000000
2.738475 1.117794 0.000000
3.032400 1.236866 0.000000
3.355393 1.367714 0.000000
3.710332 1.511503 0.000000
4.100374 1.669513 0.000000
4.528992 1.843150 0.000000
1.070471 0.322890 0.000000
1.195230 0.358721 0.000000
1.332327 0.398095 0.000000
1.482984 0.441363 0.000000
1.648541 0.488911 0.000000
1.830472 0.541161 0.000000
2.030395 0.598579 0.000000
2.250092 0.661675 0.000000
2.491516 0.731012 0.000000
2.756818 0.807206 0.000000
3.048359 0.890935 0.000000
3.368733 0.982946 0.000000
3.720792 1.084057 0.000000
4.107671 1.195168 0.000000
4.532812 1.317267 0.000000
1.093646 0.215484 0.000000
1.217669 0.237895 0.000000
1.353958 0.262522 0.000000
1.503727 0.289584 0.000000
1.668307 0.319324 0.000000
1.849165 0.352004 0.000000
2.047909 0.387917 0.000000
2.266310 0.427381 0.000000
2.506311 0.470749 0.000000
2.770048 0.518405 0.000000
3.059869 0.570775 0.000000
3.378353 0.628324 0.000000
3.728337 0.691565 0.000000
4.112933 0.761061 0.000000
4.535567 0.837430 0.000000
1.107641 0.107591 0.000000
1.231220 0.118112 0.000000
1.367021 0.129674 0.000000
1.516252 0.142378 0.000000
1.680243 0.156340 0.000000
1.860453 0.171682 0.000000
2.058486 0.188542 0.000000
2.276104 0.207069 0.000000
2.515245 0.227428 0.000000
2.778037 0.249801 0.000000
3.066820 0.274387 0.000000
3.384163 0.301404 0.000000
3.732892 0.331093 0.000000
4.116111 0.363718 0.000000
4.537231 0.399571 0.000000
POLYGONS 512 2048
3 4 50 49
3 49 50 79
3 49 79 48
3 48 79 80
3 48 80 47
3 47 80 81
3 47 81 46
3 46 81 82
3 46 82 45
3 45 82 83
3 45 83 44
3 44 83 84
3 44 84 43
3 43 84 85
3 43 85 42
3 42 85 86
3 42 86 41
3 41 86 87
3 41 87 40
3 40 87 88
3 40 88 39
3 39 88 89
3 39 89 38
3 38 89 90
3 38 90 37
3 37 90 91
3 37 91 36
3 36 91 92
3 36 92 35
3 35 92 93
3 35 93 3
3 3 93 34
3 50 51 79
3 79 51 94
3 79 94 80
3 80 94 95
3 80 95 81
3 81 95 96
3 81 96 82
3 82 96 97
3 82 97 83
3 83 97 98
3 83 98 84
3 84 98 99
3 84 99 85
3 85 99 100
3 85 100 86
3 86 100 101
3 86 101 87
3 87 101 102
3 87 102 88
3 88 102 103
3 88 103 89
3 89 103 104
3 89 104 90
3 90 104 105
3 90 105 91
3 91 105 106
3 91 106 92
3 92 106 107
3 92 107 93
3 93 107 108
3 93 108 34
3 34 108 33
3 51 52 94
3 94 52 109
3 94 109 95
3 95 109 110
3 95 110 96
3 96 110 111
3 96 111 97
3 97 111 112
3 97 112 98
3 98 112 113
3 98 113 99
3 99 113 114
3 99 114 100
3 100 114 115
3 100 115 101
3 101 115 116
3 101 116 102
3 102 116 117
3 102 117 103
3 103 117 118
3 103 118 104
3 104 118 119
3 104 119 105
3 105 119 120
3 105 120 106
3 106 120 121
3 106 121 107
3 107 121 122
3 107 122 108
3 108 122 123
3 108 123 33
3 33 123 32
3 52 53 109
3 109 53 124
3 109 124 110
3 110 124 125
3 110 125 111
3 111 125 126
3 111 126 112
3 112 126 127
3 112 127 113
3 113 127 128
3 113 128 114
3 114 128 129
3 114 129 115
3 115 129 130
3 115 130 116
3 116 130 131
3 116 131 117
3 117 131 132
3 117 132 118
3 118 132 133
3 118 133 119
3 119 133 134
3 119 134 120
3 120 134 135
3 120 135 121
3 121 135 136
3 121 136 122
3 122 136 137
3 122 137 123
3 123 137 138
3 123 138 32
3 32 138 31
3 53 54 124
3 124 54 139
3 124 139 125
3 125 139 140
3 125 140 126
3 126 140 141
3 126 141 127
3 127 141 142
3 127 142 128
3 128 142 143
3 128 143 129
3 129 143 144
3 129 144 130
3 130 144 145
3 130 145 131
3 131 145 146
3 131 146 132
3 132 146 147
3 132 147 133
3 133 147 148
3 133 148 134
3 134 148 149
3 134 149 135
3 135 149 150
3 135 150 136
3 136 150 151
3 136 151 137
3 137 151 152
3 137 152 138
3 138 152 153
3 138 153 31
3 31 153 30
3 54 55 139
3 139 55 154
3 139 154 140
3 140 154 155
3 140 155 141
3 141 155 156
3 141 156 142
3 142 156 157
3 142 157 143
3 143 157 158
3 143 158 144
3 144 158 159
3 144 159 145
3 145 159 160
3 145 160 146
3 146 160 161
3 146 161 147
3 147 161 162
3 147 162 148
3 148 162 163
3 148 163 149
3 149 163 164
3 149 164 150
3 150 164 165
3 150 165 151
3 151 165 166
3 151 166 152
3 152 166 167
3 152 167 153
3 153 167 168
3 153 168 30
3 30 168 29
3 55 56 154
3 154 56 169
3 154 169 155
3 155 169 170
3 155 170 156
3 156 170 171
3 156 171 157
3 157 171 172
3 157 172 158
3 158 172 173
3 158 173 159
3 159 173 174
3 159 174 160
3 160 174 175
3 160 175 161
3 161 175 176
3 161 176 162
3 162 176 177
3 162 177 163
3 163 177 178
3 163 178 164
3 164 178 179
3 164 179 165
3 165 179 180
3 165 180 166
3 166 180 181
3 166 181 167
3 167 181 182
3 167 182 168
3 168 182 183
3 168 183 29
3 29 183 28
3 56 5 169
3 169 5 64
3 169 64 170
3 170 64 65
3 170 65 171
3 171 65 66
3 171 66 172
3 172 66 67
3 172 67 173
3 173 67 68
3 173 68 174
3 174 68 69
3 174 69 175
3 175 69 70
3 175 70 176
3 176 70 71
3 176 71 177
3 177 71 72
3 177 72 178
3 178 72 73
3 178 73 179
3 179 73 74
3 179 74 180
3 180 74 75
3 180 75 181
3 181 75 76
3 181 76 182
3 182 76 77
3 182 77 183
3 183 77 78
3 183 78 28
3 28 78 2
3 5 57 184
3 184 64 5
3 64 184 185
3 185 65 64
3 65 185 186
3 186 66 65
3 66 186 187
3 187 67 66
3 67 187 188
3 188 68 67
3 68 188 189
3 189 69 68
3 69 189 190
3 190 70 69
3 70 190 191
3 191 71 70
3 71 191 192
3 192 72 71
3 72 192 193
3 193 73 72
3 73 193 194
3 194 74 73
3 74 194 195
3 195 75 74
3 75 195 196
3 196 76 75
3 76 196 197
3 197 77 76
3 77 197 198
3 198 78 77
3 78 198 27
3 27 2 78
3 57 58 199
3 199 184 57
3 184 199 200
3 200 185 184
3 185 200 201
3 201 186 185
3 186 201 202
3 202 187 186
3 187 202 203
3 203 188 187
3 188 203 204
3 204 189 188
3 189 204 205
3 205 190 189
3 190 205 206
3 206 191 190
3 191 206 207
3 207 192 191
3 192 207 208
3 208 193 192
3 193 208 209
3 209 194 193
3 194 209 210
3 210 195 194
3 195 210 211
3 211 196 195
3 196 211 212
3 212 197 196
3 197 212 213
3 213 198 197
3 198 213 26
3 26 27 198
3 58 59 214
3 214 199 58
3 199 214 215
3 215 200 199
3 200 215 216
3 216 201 200
3 201 216 217
3 217 202 201
3 202 217 218
3 218 203 202
3 203 218 219
3 219 204 203
3 204 219 220
3 220 205 204
3 205 220 221
3 221 206 205
3 206 221 222
3 222 207 206
3 207 222 223
3 223 208 207
3 208 223 224
3 224 209 208
3 209 224 225
3 225 210 209
3 210 225 226
3 226 211 210
3 211 226 227
3 227 212 211
3 212 227 228
3 228 213 212
3 213 228 25
3 25 26 213
3 59 60 229
3 229 214 59
3 214 229 230
3 230 215 214
3 215 230 231
3 231 216 215
3 216 231 232
3 232 217 216
3 217 232 233
3 233 218 217
3 218 233 234
3 234 219 218
3 219 234 235
3 235 220 219
3 220 235 236
3 236 221 220
3 221 236 237
3 237 222 221
3 222 237 238
3 238 223 222
3 223 238 239
3 239 224 223
3 224 239 240
3 240 225 224
3 225 240 241
3 241 226 225
3 226 241 242
3 242 227 226
3 227 242 243
3 243 228 227
3 228 243 24
3 24 25 228
3 60 61 244
3 244 229 60
3 229 244 245
3 245 230 229
3 230 245 246
3 246 231 230
3 231 246 247
3 247 232 231
3 232 247 248
3 248 233 232
3 233 248 249
3 249 234 233
3 234 249 250
3 250 235 234
3 235 250 251
3 251 236 235
3 236 251 252
3 252 237 236
3 237 252 253
3 253 238 237
3 238 253 254
3 254 239 238
3 239 254 255
3 255 240 239
3 240 255 256
3 256 241 240
3 241 256 257
3 257 242 241
3 242 257 258
3 258 243 242
3 243 258 23
3 23 24 243
3 61 62 259
3 259 244 61
3 244 259 260
3 260 245 244
3 245 260 261
3 261 246 245
3 246 261 262
3 262 247 246
3 247 262 263
3 263 248 247
3 248 263 264
3 264 249 248
3 249 264 265
3 265 250 249
3 250 265 266
3 266 251 250
3 251 266 267
3 267 252 251
3 252 267 268
3 268 253 252
3 253 268 269
3 269 254 253
3 254 269 270
3 270 255 254
3 255 270 271
3 271 256 255
3 256 271 272
3 272 257 256
3 257 272 273
3 273 258 257
3 258 273 22
3 22 23 258
3 62 63 274
3 274 259 62
3 259 274 275
3 275 260 259
3 260 275 276
3 276 261 260
3 261 276 277
3 277 262 261
3 262 277 278
3 278 263 262
3 263 278 279
3 279 264 263
3 264 279 280
3 280 265 264
3 265 280 281
3 281 266 265
3 266 281 282
3 282 267 266
3 267 282 283
3 283 268 267
3 268 283 284
3 284 269 268
3 269 284 285
3 285 270 269
3 270 285 286
3 286 271 270
3 271 286 287
3 287 272 271
3 272 287 288
3 288 273 272
3 273 288 21
3 21 22 273
3 63 0 6
3 6 274 63
3 274 6 7
3 7 275 274
3 275 7 8
3 8 276 275
3 276 8 9
3 9 277 276
3 277 9 10
3 10 278 277
3 278 10 11
3 11 279 278
3 279 11 12
3 12 280 279
3 280 12 13
3 13 281 280
3 281 13 14
3 14 282 281
3 282 14 15
3 15 283 282
3 283 15 16
3 16 284 283
3 284 16 17
3 17 285 284
3 285 17 18
3 18 286 285
3 286 18 19
3 19 287 286
3 287 19 20
3 20 288 287
3 288 20 1
3 1 21 288
POINT_DATA 289
VECTORS U float
0.000751 0.000001 0.000000
0.001399 -0.000000 0.000000
0.001277 -0.001222 0.000000
0.000000 -0.001295 0.000000
-0.000002 -0.000251 0.000000
0.000530 -0.000176 0.000000
0.000772 0.000000 0.000000
0.000784 -0.000000 0.000000
0.000793 0.000000 0.000000
0.000803 -0.000000 0.000000
0.000815 0.000000 0.000000
0.000830 -0.000000 0.000000
0.000852 0.000000 0.000000
0.000878 -0.000000 0.000000
0.000913 0.000000 0.000000
0.000954 -0.000000 0.000000
0.001004 0.000000 0.000000
0.001063 -0.000000 0.000000
0.001131 0.000000 0.000000
0.001209 -0.000000 0.000000
0.001298 0.000000 0.000000
0.001397 -0.000097 0.000000
0.001389 -0.000205 0.000000
0.001375 -0.000327 0.000000
0.001355 -0.000466 0.000000
0.001334 -0.000624 0.000000
0.001312 -0.000803 0.000000
0.001293 -0.001002 0.000000
0.001056 -0.001229 0.000000
0.000853 -0.001238 0.000000
0.000669 -0.001251 0.000000
0.000503 -0.001265 0.000000
0.000356 -0.001277 0.000000
0.000224 -0.001287 0.000000
0.000106 -0.001293 0.000000
-0.000000 -0.001184 0.000000
0.000000 -0.001084 0.000000
-0.000000 -0.000993 0.000000
0.000000 -0.000912 0.000000
-0.000000 -0.000838 0.000000
0.000000 -0.000772 0.000000
-0.000000 -0.000712 0.000000
0.000000 -0.000657 0.000000
-0.000000 -0.000608 0.000000
0.000001 -0.000560 0.000000
-0.000001 -0.000517 0.000000
0.000001 -0.000473 0.000000
-0.000000 -0.000428 0.000000
0.000000 -0.000379 0.000000
0.000000 -0.000322 0.000000
0.000076 -0.000250 0.000000
0.000148 -0.000246 0.000000
0.000219 -0.000239 0.000000
0.000288 -0.000231 0.000000
0.000355 -0.000221 0.000000
0.000417 -0.000208 0.000000
0.000476 -0.000192 0.000000
0.000579 -0.000158 0.000000
0.000623 -0.000138 0.000000
0.000662 -0.000117 0.000000
0.000693 -0.000096 0.000000
0.000718 -0.000073 0.000000
0.000736 -0.000050 0.000000
0.000747 -0.000026 0.000000
0.000469 -0.000166 0.000000
0.000442 -0.000180 0.000000
0.000436 -0.000209 0.000000
0.000447 -0.000248 0.000000
0.000469 -0.000294 0.000000
0.000500 -0.000346 0.000000
0.000540 -0.000403 0.000000
0.000588 -0.000466 0.000000
0.000643 -0.000534 0.000000
0.000707 -0.000609 0.000000
0.000778 -0.000690 0.000000
0.000858 -0.000778 0.000000
0.000947 -0.000875 0.000000
0.001046 -0.000981 0.000000
0.001156 -0.001096 0.000000
0.000057 -0.000319 0.000000
0.000049 -0.000375 0.000000
0.000042 -0.000424 0.000000
0.000041 -0.000468 0.000000
0.000040 -0.000512 0.000000
0.000042 -0.000556 0.000000
0.000044 -0.000603 0.000000
0.000048 -0.000653 0.000000
0.000053 -0.000708 0.000000
0.000058 -0.000768 0.000000
0.000064 -0.000835 0.000000
0.000071 -0.000909 0.000000
0.000078 -0.000991 0.000000
0.000087 -0.001081 0.000000
0.000096 -0.001182 0.000000
0.000116 -0.000310 0.000000
0.000099 -0.000364 0.000000
0.000087 -0.000410 0.000000
0.000084 -0.000454 0.000000
0.000083 -0.000497 0.000000
0.000087 -0.000542 0.000000
0.000093 -0.000589 0.000000
0.000100 -0.000640 0.000000
0.000110 -0.000696 0.000000
0.000122 -0.000757 0.000000
0.000135 -0.000824 0.000000
0.000149 -0.000899 0.000000
0.000165 -0.000982 0.000000
0.000183 -0.001074 0.000000
0.000202 -0.001175 0.000000
0.000175 -0.000296 0.000000
0.000151 -0.000344 0.000000
0.000136 -0.000389 0.000000
0.000131 -0.000431 0.000000
0.000132 -0.000474 0.000000
0.000138 -0.000519 0.000000
0.000147 -0.000566 0.000000
0.000160 -0.000618 0.000000
0.000175 -0.000675 0.000000
0.000193 -0.000738 0.000000
0.000214 -0.000807 0.000000
0.000237 -0.000883 0.000000
0.000262 -0.000968 0.000000
0.000290 -0.001061 0.000000
0.000321 -0.001164 0.000000
0.000234 -0.000277 0.000000
0.000205 -0.000319 0.000000
0.000188 -0.000359 0.000000
0.000183 -0.000400 0.000000
0.000186 -0.000442 0.000000
0.000195 -0.000487 0.000000
0.000210 -0.000536 0.000000
0.000228 -0.000590 0.000000
0.000250 -0.000648 0.000000
0.000275 -0.000713 0.000000
0.000304 -0.000784 0.000000
0.000336 -0.000862 0.000000
0.000372 -0.000949 0.000000
0.000412 -0.001044 0.000000
0.000455 -0.001149 0.000000
0.000294 -0.000254 0.000000
0.000261 -0.000288 0.000000
0.000245 -0.000324 0.000000
0.000242 -0.000363 0.000000
0.000248 -0.000405 0.000000
0.000262 -0.000451 0.000000
0.000281 -0.000501 0.000000
0.000305 -0.000557 0.000000
0.000334 -0.000617 0.000000
0.000368 -0.000684 0.000000
0.000406 -0.000758 0.000000
0.000448 -0.000839 0.000000
0.000495 -0.000927 0.000000
0.000548 -0.001025 0.000000
0.000605 -0.001133 0.000000
0.000353 -0.000227 0.000000
0.000319 -0.000253 0.000000
0.000306 -0.000286 0.000000
0.000306 -0.000323 0.000000
0.000317 -0.000366 0.000000
0.000335 -0.000413 0.000000
0.000361 -0.000466 0.000000
0.000392 -0.000523 0.000000
0.000429 -0.000586 0.000000
0.000472 -0.000656 0.000000
0.000520 -0.000732 0.000000
0.000573 -0.000815 0.000000
0.000633 -0.000907 0.000000
0.000699 -0.001007 0.000000
0.000772 -0.001117 0.000000
0.000411 -0.000197 0.000000
0.000379 -0.000217 0.000000
0.000370 -0.000247 0.000000
0.000375 -0.000284 0.000000
0.000391 -0.000328 0.000000
0.000416 -0.000377 0.000000
0.000448 -0.000432 0.000000
0.000487 -0.000492 0.000000
0.000533 -0.000558 0.000000
0.000585 -0.000630 0.000000
0.000644 -0.000709 0.000000
0.000710 -0.000795 0.000000
0.000784 -0.000889 0.000000
0.000865 -0.000992 0.000000
0.000956 -0.001105 0.000000
0.000532 -0.000136 0.000000
0.000509 -0.000139 0.000000
0.000503 -0.000158 0.000000
0.000510 -0.000188 0.000000
0.000528 -0.000225 0.000000
0.000555 -0.000269 0.000000
0.000590 -0.000317 0.000000
0.000634 -0.000370 0.000000
0.000685 -0.000428 0.000000
0.000744 -0.000491 0.000000
0.000812 -0.000559 0.000000
0.000888 -0.000633 0.000000
0.000973 -0.000714 0.000000
0.001069 -0.000802 0.000000
0.001175 -0.000897 0.000000
0.000592 -0.000109 0.000000
0.000574 -0.000104 0.000000
0.000570 -0.000115 0.000000
0.000576 -0.000137 0.000000
0.000590 -0.000166 0.000000
0.000614 -0.000201 0.000000
0.000645 -0.000240 0.000000
0.000684 -0.000284 0.000000
0.000731 -0.000332 0.000000
0.000786 -0.000384 0.000000
0.000850 -0.000440 0.000000
0.000922 -0.000501 0.000000
0.001004 -0.000567 0.000000
0.001095 -0.000639 0.000000
0.001198 -0.000718 0.000000
0.000644 -0.000085 0.000000
0.000635 -0.000075 0.000000
0.000633 -0.000080 0.000000
0.000639 -0.000094 0.000000
0.000652 -0.000116 0.000000
0.000672 -0.000143 0.000000
0.000700 -0.000175 0.000000
0.000736 -0.000210 0.000000
0.000779 -0.000248 0.000000
0.000830 -0.000290 0.000000
0.000890 -0.000335 0.000000
0.000958 -0.000384 0.000000
0.001036 -0.000437 0.000000
0.001124 -0.000495 0.000000
0.001223 -0.000557 0.000000
0.000689 -0.000065 0.000000
0.000687 -0.000052 0.000000
0.000689 -0.000053 0.000000
0.000695 -0.000062 0.000000
0.000708 -0.000078 0.000000
0.000726 -0.000098 0.000000
0.000752 -0.000122 0.000000
0.000784 -0.000148 0.000000
0.000824 -0.000178 0.000000
0.000872 -0.000210 0.000000
0.000928 -0.000245 0.000000
0.000993 -0.000283 0.000000
0.001068 -0.000323 0.000000
0.001152 -0.000367 0.000000
0.001248 -0.000415 0.000000
0.000725 -0.000046 0.000000
0.000729 -0.000035 0.000000
0.000734 -0.000033 0.000000
0.000742 -0.000039 0.000000
0.000754 -0.000049 0.000000
0.000771 -0.000063 0.000000
0.000795 -0.000080 0.000000
0.000825 -0.000099 0.000000
0.000862 -0.000120 0.000000
0.000907 -0.000144 0.000000
0.000961 -0.000169 0.000000
0.001023 -0.000196 0.000000
0.001095 -0.000225 0.000000
0.001177 -0.000257 0.000000
0.001270 -0.000291 0.000000
0.000750 -0.000030 0.000000
0.000760 -0.000021 0.000000
0.000767 -0.000019 0.000000
0.000776 -0.000022 0.000000
0.000788 -0.000028 0.000000
0.000804 -0.000037 0.000000
0.000827 -0.000048 0.000000
0.000855 -0.000060 0.000000
0.000891 -0.000074 0.000000
0.000934 -0.000088 0.000000
0.000985 -0.000105 0.000000
0.001045 -0.000122 0.000000
0.001115 -0.000140 0.000000
0.001195 -0.000160 0.000000
0.001286 -0.000182 0.000000
0.000766 -0.000014 0.000000
0.000778 -0.000010 0.000000
0.000787 -0.000008 0.000000
0.000796 -0.000010 0.000000
0.000808 -0.000013 0.000000
0.000824 -0.000017 0.000000
0.000845 -0.000022 0.000000
0.000873 -0.000028 0.000000
0.000907 -0.000034 0.000000
0.000949 -0.000042 0.000000
0.000999 -0.000049 0.000000
0.001058 -0.000057 0.000000
0.001127 -0.000066 0.000000
0.001206 -0.000076 0.000000
0.001296 -0.000086 0.000000
CELL_DATA 512
SCALARS P float 1
LOOKUP_TABLE default
1519.207818
1153.460691
1240.003218
1354.390074
1231.065166
868.622057
924.254452
1091.764810
1022.398649
712.679891
779.338459
877.276345
841.068222
660.228963
700.384548
729.268354
712.253492
623.309912
645.784577
637.981953
634.531514
589.730745
602.135281
587.250707
588.920331
561.260368
569.649439
557.001436
560.699991
542.330471
547.427393
537.926221
1888.174267
933.815781
787.127359
1755.041103
1534.881576
562.448635
737.659799
1354.326085
1074.544976
511.802308
913.303175
821.304621
767.709488
661.085424
827.343265
613.270363
682.994401
660.814433
705.616976
558.157366
657.750078
596.798764
624.074775
552.689056
618.736742
555.311664
581.629344
544.153110
581.575380
533.923995
549.351206
541.016288
1760.640450
925.030678
786.820804
1552.893669
1377.525684
493.055740
771.984134
1294.651217
901.922018
594.849645
986.335566
764.941884
724.087550
677.932297
807.094079
629.106805
673.187954
623.366307
659.053793
627.325471
617.600164
583.462284
593.526767
601.663010
565.793764
573.982008
552.764981
574.758575
543.324595
554.228368
536.739171
540.290377
1796.374018
691.258046
710.104963
1598.733034
1617.882630
322.337139
793.087223
1138.872337
864.339134
623.465979
914.266390
684.746093
710.811138
665.067746
772.557252
558.760264
696.001658
610.953315
636.196081
550.980240
635.011462
573.190947
574.665436
554.913221
576.619213
549.964778
540.229537
553.052348
542.364281
536.167172
530.571461
535.587597
1715.297133
608.798695
562.720334
1591.673723
1072.800277
460.557521
965.627444
902.740785
648.856390
756.355505
857.759149
595.920708
707.639311
627.981921
701.020554
594.171357
645.642877
566.684609
639.811297
567.341923
586.449827
557.909847
580.916895
543.227933
562.448994
539.639583
542.323510
533.316023
539.901120
531.742583
521.381356
527.923866
1269.820104
756.806392
562.078591
1246.550330
1030.294344
528.580472
845.132407
730.088729
677.059525
598.975173
723.971976
642.965056
661.165936
553.723075
652.842313
553.764842
607.765104
550.936039
585.799776
536.163516
567.620894
534.321953
551.570054
530.097502
546.024620
518.568818
533.213459
524.936475
525.532945
519.522420
515.951411
519.946065
1257.145674
293.114308
538.108945
1117.487180
525.888978
739.492395
796.513028
530.769900
714.849078
617.194435
571.239372
580.995309
635.685554
514.380933
606.440278
532.330471
584.781191
497.815723
579.494734
509.399408
556.944135
507.160962
542.698621
509.803972
539.059774
510.253725
520.689032
511.836854
521.664425
511.614281
507.137127
517.968916
842.578594
646.665408
736.926461
526.518788
538.380002
643.635103
517.009959
624.673966
581.533663
460.915786
583.904128
519.599773
564.117959
505.524005
551.598149
491.173047
558.823324
506.238827
527.573480
511.697505
523.796947
517.419146
506.517064
521.500870
503.595719
521.287386
501.394713
503.361079
502.293559
533.533971
483.113357
512.926546
706.348851
11.177796
761.753917
368.066198
396.915969
479.726242
417.143150
420.272191
484.450358
542.288241
447.787409
482.221082
470.297581
506.288286
448.087303
517.778432
460.167713
496.580870
476.484616
493.618225
484.212724
484.952971
496.505175
481.903071
499.530361
480.176462
500.531356
500.087137
498.443247
463.223612
528.181320
486.464465
440.108658
-182.147912
566.253752
205.609231
204.693756
428.549811
338.228711
445.988061
462.497349
327.243753
476.988111
446.582815
412.774912
471.694046
431.881589
490.789751
430.720257
505.005998
434.596353
508.097368
445.929256
501.558459
462.812645
501.383783
461.119620
497.657083
482.253110
494.624522
479.181481
490.789299
500.832891
479.282317
35.341287
-97.210641
546.942410
-9.035827
75.254584
380.418930
414.201181
218.464003
323.377603
359.108195
408.132374
338.782810
399.623645
426.659099
415.507720
432.177135
425.197646
453.596616
443.788835
463.687824
455.328796
469.739874
465.978169
472.723642
467.715575
484.590782
478.072070
477.286135
481.835813
482.235979
491.430166
478.895710
-81.766303
-202.225221
206.589934
-100.785236
-5.307849
292.832481
214.978361
102.881126
354.613852
274.270404
308.815839
298.338452
355.459572
365.997522
354.714235
384.917106
395.499136
421.679434
403.310936
422.077044
444.273832
432.581456
448.818590
448.880114
460.739728
454.742087
475.179218
463.105825
472.244375
468.772581
484.410970
471.890413
-567.787642
5.501344
202.229113
-262.466771
-276.212686
321.606752
254.825182
29.257261
119.602942
294.897388
177.481385
303.526205
261.393468
366.014656
279.683407
411.122854
339.430346
397.942011
389.485901
430.023002
405.352158
419.841436
449.034326
431.775701
454.909891
439.137853
476.791873
440.598026
474.310667
460.968095
474.276628
465.770059
-427.857608
-135.966657
-4.413023
-270.126560
-253.234363
280.886916
153.396473
-81.436604
121.066953
360.025006
126.754813
270.918811
280.644941
332.162589
286.607209
343.258265
349.559661
371.975947
380.771980
359.281354
412.288014
395.748447
428.388938
387.844231
454.362260
408.773263
459.284887
419.157643
465.249188
440.828919
465.499847
460.816809
-656.340643
-181.215837
126.920678
-518.296601
-343.851838
218.946962
230.602075
-190.330642
62.849217
259.411381
188.946873
156.804589
284.181461
260.230711
256.170256
333.246067
331.028946
340.725909
326.477529
413.029547
348.452435
415.969474
371.245239
449.752186
381.067253
454.392400
406.108634
468.969287
411.315160
477.787681
441.895926
465.503677
-625.908074
-223.106862
-234.267195
-285.879908
-231.128121
69.123852
75.630692
-45.447594
-5.628785
225.883808
216.882163
152.173251
180.287980
301.903136
298.083207
283.442859
305.268139
360.523134
354.095724
366.525869
375.367271
406.924308
397.959736
417.248170
415.971300
438.665681
429.182249
447.728536
442.033490
459.364803
449.910656
464.174067
