# vtk DataFile Version 2.0
plate_with_hole_mix
ASCII
DATASET POLYDATA
POINTS 289 float
1.000000 0.000000 0.000000
5.000000 0.000000 0.000000
5.000000 5.000000 0.000000
0.000000 5.000000 0.000000
0.000000 1.000000 0.000000
0.707107 0.707107 0.000000
1.093560 0.000000 0.000000
1.198347 0.000000 0.000000
1.315709 0.000000 0.000000
1.447154 0.000000 0.000000
1.594373 0.000000 0.000000
1.759258 0.000000 0.000000
1.943929 0.000000 0.000000
2.150760 0.000000 0.000000
2.382411 0.000000 0.000000
2.641861 0.000000 0.000000
2.932444 0.000000 0.000000
3.257898 0.000000 0.000000
3.622405 0.000000 0.000000
4.030654 0.000000 0.000000
4.487893 0.000000 0.000000
5.000000 0.478635 0.000000
5.000000 0.993168 0.000000
5.000000 1.546291 0.000000
5.000000 2.140897 0.000000
5.000000 2.780100 0.000000
5.000000 3.467243 0.000000
5.000000 4.205921 0.000000
4.205921 5.000000 0.000000
3.467243 5.000000 0.000000
2.780100 5.000000 0.000000
2.140897 5.000000 0.000000
1.546291 5.000000 0.000000
0.993168 5.000000 0.000000
0.478635 5.000000 0.000000
0.000000 4.487893 0.000000
0.000000 4.030654 0.000000
0.000000 3.622405 0.000000
0.000000 3.257898 0.000000
0.000000 2.932444 0.000000
0.000000 2.641861 0.000000
0.000000 2.382411 0.000000
0.000000 2.150760 0.000000
0.000000 1.943929 0.000000
0.000000 1.759258 0.000000
0.000000 1.594373 0.000000
0.000000 1.447154 0.000000
0.000000 1.315709 0.000000
0.000000 1.198347 0.000000
0.000000 1.093560 0.000000
0.098017 0.995185 0.000000
0.195090 0.980785 0.000000
0.290285 0.956940 0.000000
0.382683 0.923880 0.000000
0.471397 0.881921 0.000000
0.555570 0.831470 0.000000
0.634393 0.773010 0.000000
0.773010 0.634393 0.000000
0.831470 0.555570 0.000000
0.881921 0.471397 0.000000
0.923880 0.382683 0.000000
0.956940 0.290285 0.000000
0.980785 0.195090 0.000000
0.995185 0.098017 0.000000
0.777569 0.777569 0.000000
0.859304 0.859304 0.000000
0.954118 0.954118 0.000000
1.064102 1.064102 0.000000
1.191683 1.191683 0.000000
1.339677 1.339677 0.000000
1.511350 1.511350 0.000000
1.710491 1.710491 0.000000
1.941494 1.941494 0.000000
2.209458 2.209458 0.000000
2.520296 2.520296 0.000000
2.880868 2.880868 0.000000
3.299132 3.299132 0.000000
3.784318 3.784318 0.000000
4.347134 4.347134 0.000000
0.104133 1.085974 0.000000
0.111245 1.187930 0.000000
0.119515 1.302434 0.000000
0.129130 1.431045 0.000000
0.140309 1.575512 0.000000
0.153303 1.737807 0.000000
0.168408 1.920147 0.000000
0.185964 2.125029 0.000000
0.206368 2.355264 0.000000
0.230081 2.614016 0.000000
0.257636 2.904851 0.000000
0.289654 3.231783 0.000000
0.326857 3.599335 0.000000
0.370081 4.012605 0.000000
0.420298 4.477335 0.000000
0.207955 1.068810 0.000000
0.222910 1.167960 0.000000
0.240293 1.279662 0.000000
0.260497 1.405526 0.000000
0.283977 1.547373 0.000000
0.311263 1.707262 0.000000
0.342971 1.887520 0.000000
0.379814 2.090781 0.000000
0.422621 2.320026 0.000000
0.472355 2.578627 0.000000
0.530134 2.870402 0.000000
0.597255 3.199674 0.000000
0.675225 3.571342 0.000000
0.765793 3.990953 0.000000
0.870988 4.464796 0.000000
0.310596 1.042189 0.000000
0.334197 1.138545 0.000000
0.361621 1.247481 0.000000
0.393484 1.370669 0.000000
0.430502 1.510008 0.000000
0.473507 1.667656 0.000000
0.523465 1.846063 0.000000
0.581497 2.048016 0.000000
0.648905 2.276682 0.000000
0.727198 2.535663 0.000000
0.818132 2.829056 0.000000
0.923743 3.161525 0.000000
1.046393 3.538378 0.000000
1.188826 3.965659 0.000000
1.354226 4.450251 0.000000
0.411205 1.006324 0.000000
0.444335 1.099875 0.000000
0.482816 1.206061 0.000000
0.527511 1.326621 0.000000
0.579421 1.463544 0.000000
0.639708 1.619094 0.000000
0.709720 1.795860 0.000000
0.791024 1.996794 0.000000
0.885436 2.225271 0.000000
0.995066 2.485144 0.000000
1.122363 2.780816 0.000000
1.270167 3.117324 0.000000
1.441778 3.500423 0.000000
1.641023 3.936698 0.000000
1.872344 4.433683 0.000000
0.508963 0.961510 0.000000
0.552583 1.052225 0.000000
0.603233 1.155652 0.000000
0.662041 1.273609 0.000000
0.730320 1.408179 0.000000
0.809594 1.561749 0.000000
0.901628 1.737054 0.000000
1.008475 1.937233 0.000000
1.132515 2.165884 0.000000
1.276510 2.427135 0.000000
1.443667 2.725725 0.000000
1.637705 3.067092 0.000000
1.862942 3.457482 0.000000
2.124389 3.904066 0.000000
2.427859 4.415083 0.000000
0.603089 0.908129 0.000000
0.658248 0.995948 0.000000
0.722273 1.096581 0.000000
0.796587 1.211930 0.000000
0.882843 1.344182 0.000000
0.982958 1.495857 0.000000
1.099155 1.669852 0.000000
1.234016 1.869505 0.000000
1.390535 2.098660 0.000000
1.572187 2.361745 0.000000
1.783005 2.663860 0.000000
2.027667 3.010881 0.000000
2.311602 3.409583 0.000000
2.641109 3.867773 0.000000
3.023495 4.394452 0.000000
0.692851 0.846637 0.000000
0.760683 0.931474 0.000000
0.839394 1.029248 0.000000
0.930726 1.141951 0.000000
1.036702 1.271886 0.000000
1.159668 1.421715 0.000000
1.302348 1.594512 0.000000
1.467901 1.793834 0.000000
1.659991 2.023788 0.000000
1.882869 2.289124 0.000000
2.141469 2.595336 0.000000
2.441514 2.948772 0.000000
2.789642 3.356777 0.000000
3.193557 3.827844 0.000000
3.662194 4.371797 0.000000
0.846637 0.692851 0.000000
0.931474 0.760683 0.000000
1.029248 0.839394 0.000000
1.141951 0.930726 0.000000
1.271886 1.036702 0.000000
1.421715 1.159668 0.000000
1.594512 1.302348 0.000000
1.793834 1.467901 0.000000
2.023788 1.659991 0.000000
2.289124 1.882869 0.000000
2.595336 2.141469 0.000000
2.948772 2.441514 0.000000
3.356777 2.789642 0.000000
3.827844 3.193557 0.000000
4.371797 3.662194 0.000000
0.908129 0.603089 0.000000
0.995948 0.658248 0.000000
1.096581 0.722273 0.000000
1.211930 0.796587 0.000000
1.344182 0.882843 0.000000
1.495857 0.982958 0.000000
1.669852 1.099155 0.000000
1.869505 1.234016 0.000000
2.098660 1.390535 0.000000
2.361745 1.572187 0.000000
2.663860 1.783005 0.000000
3.010881 2.027667 0.000000
3.409583 2.311602 0.000000
3.867773 2.641109 0.000000
4.394452 3.023495 0.000000
0.961510 0.508963 0.000000
1.052225 0.552583 0.000000
1.155652 0.603233 0.000000
1.273609 0.662041 0.000000
1.408179 0.730320 0.000000
1.561749 0.809594 0.000000
1.737054 0.901628 0.000000
1.937233 1.008475 0.000000
2.165884 1.132515 0.000000
2.427135 1.276510 0.000000
2.725725 1.443667 0.000000
3.067092 1.637705 0.000000
3.457482 1.862942 0.000000
3.904066 2.124389 0.000000
4.415083 2.427859 0.000000
1.006324 0.411205 0.000000
1.099875 0.444335 0.000000
1.206061 0.482816 0.000000
1.326621 0.527511 0.000000
1.463544 0.579421 0.000000
1.619094 0.639708 0.000000
1.795860 0.709720 0.000000
1.996794 0.791024 0.000000
2.225271 0.885436 0.000000
2.485144 0.995066 0.000000
2.780816 1.122363 0.000000
3.117324 1.270167 0.000000
3.500423 1.441778 0.000000
3.936698 1.641023 0.000000
4.433683 1.872344 0.000000
1.042189 0.310596 0.000000
1.138545 0.334197 0.000000
1.247481 0.361621 0.000000
1.370669 0.393484 0.000000
1.510008 0.430502 0.000000
1.667656 0.473507 0.000000
1.846063 0.523465 0.000000
2.048016 0.581497 0.000000
2.276682 0.648905 0.000000
2.535663 0.727198 0.000000
2.829056 0.818132 0.000000
3.161525 0.923743 0.000000
3.538378 1.046393 0.000000
3.965659 1.188826 0.000000
4.450251 1.354226 0.000000
1.068810 0.207955 0.000000
1.167960 0.222910 0.000000
1.279662 0.240293 0.000000
1.405526 0.260497 0.000000
1.547373 0.283977 0.000000
1.707262 0.311263 0.000000
1.887520 0.342971 0.000000
2.090781 0.379814 0.000000
2.320026 0.422621 0.000000
2.578627 0.472355 0.000000
2.870402 0.530134 0.000000
3.199674 0.597255 0.000000
3.571342 0.675225 0.000000
3.990953 0.765793 0.000000
4.464796 0.870988 0.000000
1.085974 0.104133 0.000000
1.187930 0.111245 0.000000
1.302434 0.119515 0.000000
1.431045 0.129130 0.000000
1.575512 0.140309 0.000000
1.737807 0.153303 0.000000
1.920147 0.168408 0.000000
2.125029 0.185964 0.000000
2.355264 0.206368 0.000000
2.614016 0.230081 0.000000
2.904851 0.257636 0.000000
3.231783 0.289654 0.000000
3.599335 0.326857 0.000000
4.012605 0.370081 0.000000
4.477335 0.420298 0.000000
POLYGONS 512 2048
3 4 50 49
3 49 50 79
3 49 79 48
3 48 79 80
3 48 80 47
3 47 80 81
3 47 81 46
3 46 81 82
3 46 82 45
3 45 82 83
3 45 83 44
3 44 83 84
3 44 84 43
3 43 84 85
3 43 85 42
3 42 85 86
3 42 86 41
3 41 86 87
3 41 87 40
3 40 87 88
3 40 88 39
3 39 88 89
3 39 89 38
3 38 89 90
3 38 90 37
3 37 90 91
3 37 91 36
3 36 91 92
3 36 92 35
3 35 92 93
3 35 93 3
3 3 93 34
3 50 51 79
3 79 51 94
3 79 94 80
3 80 94 95
3 80 95 81
3 81 95 96
3 81 96 82
3 82 96 97
3 82 97 83
3 83 97 98
3 83 98 84
3 84 98 99
3 84 99 85
3 85 99 100
3 85 100 86
3 86 100 101
3 86 101 87
3 87 101 102
3 87 102 88
3 88 102 103
3 88 103 89
3 89 103 104
3 89 104 90
3 90 104 105
3 90 105 91
3 91 105 106
3 91 106 92
3 92 106 107
3 92 107 93
3 93 107 108
3 93 108 34
3 34 108 33
3 51 52 94
3 94 52 109
3 94 109 95
3 95 109 110
3 95 110 96
3 96 110 111
3 96 111 97
3 97 111 112
3 97 112 98
3 98 112 113
3 98 113 99
3 99 113 114
3 99 114 100
3 100 114 115
3 100 115 101
3 101 115 116
3 101 116 102
3 102 116 117
3 102 117 103
3 103 117 118
3 103 118 104
3 104 118 119
3 104 119 105
3 105 119 120
3 105 120 106
3 106 120 121
3 106 121 107
3 107 121 122
3 107 122 108
3 108 122 123
3 108 123 33
3 33 123 32
3 52 53 109
3 109 53 124
3 109 124 110
3 110 124 125
3 110 125 111
3 111 125 126
3 111 126 112
3 112 126 127
3 112 127 113
3 113 127 128
3 113 128 114
3 114 128 129
3 114 129 115
3 115 129 130
3 115 130 116
3 116 130 131
3 116 131 117
3 117 131 132
3 117 132 118
3 118 132 133
3 118 133 119
3 119 133 134
3 119 134 120
3 120 134 135
3 120 135 121
3 121 135 136
3 121 136 122
3 122 136 137
3 122 137 123
3 123 137 138
3 123 138 32
3 32 138 31
3 53 54 124
3 124 54 139
3 124 139 125
3 125 139 140
3 125 140 126
3 126 140 141
3 126 141 127
3 127 141 142
3 127 142 128
3 128 142 143
3 128 143 129
3 129 143 144
3 129 144 130
3 130 144 145
3 130 145 131
3 131 145 146
3 131 146 132
3 132 146 147
3 132 147 133
3 133 147 148
3 133 148 134
3 134 148 149
3 134 149 135
3 135 149 150
3 135 150 136
3 136 150 151
3 136 151 137
3 137 151 152
3 137 152 138
3 138 152 153
3 138 153 31
3 31 153 30
3 54 55 139
3 139 55 154
3 139 154 140
3 140 154 155
3 140 155 141
3 141 155 156
3 141 156 142
3 142 156 157
3 142 157 143
3 143 157 158
3 143 158 144
3 144 158 159
3 144 159 145
3 145 159 160
3 145 160 146
3 146 160 161
3 146 161 147
3 147 161 162
3 147 162 148
3 148 162 163
3 148 163 149
3 149 163 164
3 149 164 150
3 150 164 165
3 150 165 151
3 151 165 166
3 151 166 152
3 152 166 167
3 152 167 153
3 153 167 168
3 153 168 30
3 30 168 29
3 55 56 154
3 154 56 169
3 154 169 155
3 155 169 170
3 155 170 156
3 156 170 171
3 156 171 157
3 157 171 172
3 157 172 158
3 158 172 173
3 158 173 159
3 159 173 174
3 159 174 160
3 160 174 175
3 160 175 161
3 161 175 176
3 161 176 162
3 162 176 177
3 162 177 163
3 163 177 178
3 163 178 164
3 164 178 179
3 164 179 165
3 165 179 180
3 165 180 166
3 166 180 181
3 166 181 167
3 167 181 182
3 167 182 168
3 168 182 183
3 168 183 29
3 29 183 28
3 56 5 169
3 169 5 64
3 169 64 170
3 170 64 65
3 170 65 171
3 171 65 66
3 171 66 172
3 172 66 67
3 172 67 173
3 173 67 68
3 173 68 174
3 174 68 69
3 174 69 175
3 175 69 70
3 175 70 176
3 176 70 71
3 176 71 177
3 177 71 72
3 177 72 178
3 178 72 73
3 178 73 179
3 179 73 74
3 179 74 180
3 180 74 75
3 180 75 181
3 181 75 76
3 181 76 182
3 182 76 77
3 182 77 183
3 183 77 78
3 183 78 28
3 28 78 2
3 5 57 184
3 184 64 5
3 64 184 185
3 185 65 64
3 65 185 186
3 186 66 65
3 66 186 187
3 187 67 66
3 67 187 188
3 188 68 67
3 68 188 189
3 189 69 68
3 69 189 190
3 190 70 69
3 70 190 191
3 191 71 70
3 71 191 192
3 192 72 71
3 72 192 193
3 193 73 72
3 73 193 194
3 194 74 73
3 74 194 195
3 195 75 74
3 75 195 196
3 196 76 75
3 76 196 197
3 197 77 76
3 77 197 198
3 198 78 77
3 78 198 27
3 27 2 78
3 57 58 199
3 199 184 57
3 184 199 200
3 200 185 184
3 185 200 201
3 201 186 185
3 186 201 202
3 202 187 186
3 187 202 203
3 203 188 187
3 188 203 204
3 204 189 188
3 189 204 205
3 205 190 189
3 190 205 206
3 206 191 190
3 191 206 207
3 207 192 191
3 192 207 208
3 208 193 192
3 193 208 209
3 209 194 193
3 194 209 210
3 210 195 194
3 195 210 211
3 211 196 195
3 196 211 212
3 212 197 196
3 197 212 213
3 213 198 197
3 198 213 26
3 26 27 198
3 58 59 214
3 214 199 58
3 199 214 215
3 215 200 199
3 200 215 216
3 216 201 200
3 201 216 217
3 217 202 201
3 202 217 218
3 218 203 202
3 203 218 219
3 219 204 203
3 204 219 220
3 220 205 204
3 205 220 221
3 221 206 205
3 206 221 222
3 222 207 206
3 207 222 223
3 223 208 207
3 208 223 224
3 224 209 208
3 209 224 225
3 225 210 209
3 210 225 226
3 226 211 210
3 211 226 227
3 227 212 211
3 212 227 228
3 228 213 212
3 213 228 25
3 25 26 213
3 59 60 229
3 229 214 59
3 214 229 230
3 230 215 214
3 215 230 231
3 231 216 215
3 216 231 232
3 232 217 216
3 217 232 233
3 233 218 217
3 218 233 234
3 234 219 218
3 219 234 235
3 235 220 219
3 220 235 236
3 236 221 220
3 221 236 237
3 237 222 221
3 222 237 238
3 238 223 222
3 223 238 239
3 239 224 223
3 224 239 240
3 240 225 224
3 225 240 241
3 241 226 225
3 226 241 242
3 242 227 226
3 227 242 243
3 243 228 227
3 228 243 24
3 24 25 228
3 60 61 244
3 244 229 60
3 229 244 245
3 245 230 229
3 230 245 246
3 246 231 230
3 231 246 247
3 247 232 231
3 232 247 248
3 248 233 232
3 233 248 249
3 249 234 233
3 234 249 250
3 250 235 234
3 235 250 251
3 251 236 235
3 236 251 252
3 252 237 236
3 237 252 253
3 253 238 237
3 238 253 254
3 254 239 238
3 239 254 255
3 255 240 239
3 240 255 256
3 256 241 240
3 241 256 257
3 257 242 241
3 242 257 258
3 258 243 242
3 243 258 23
3 23 24 243
3 61 62 259
3 259 244 61
3 244 259 260
3 260 245 244
3 245 260 261
3 261 246 245
3 246 261 262
3 262 247 246
3 247 262 263
3 263 248 247
3 248 263 264
3 264 249 248
3 249 264 265
3 265 250 249
3 250 265 266
3 266 251 250
3 251 266 267
3 267 252 251
3 252 267 268
3 268 253 252
3 253 268 269
3 269 254 253
3 254 269 270
3 270 255 254
3 255 270 271
3 271 256 255
3 256 271 272
3 272 257 256
3 257 272 273
3 273 258 257
3 258 273 22
3 22 23 258
3 62 63 274
3 274 259 62
3 259 274 275
3 275 260 259
3 260 275 276
3 276 261 260
3 261 276 277
3 277 262 261
3 262 277 278
3 278 263 262
3 263 278 279
3 279 264 263
3 264 279 280
3 280 265 264
3 265 280 281
3 281 266 265
3 266 281 282
3 282 267 266
3 267 282 283
3 283 268 267
3 268 283 284
3 284 269 268
3 269 284 285
3 285 270 269
3 270 285 286
3 286 271 270
3 271 286 287
3 287 272 271
3 272 287 288
3 288 273 272
3 273 288 21
3 21 22 273
3 63 0 6
3 6 274 63
3 274 6 7
3 7 275 274
3 275 7 8
3 8 276 275
3 276 8 9
3 9 277 276
3 277 9 10
3 10 278 277
3 278 10 11
3 11 279 278
3 279 11 12
3 12 280 279
3 280 12 13
3 13 281 280
3 281 13 14
3 14 282 281
3 282 14 15
3 15 283 282
3 283 15 16
3 16 284 283
3 284 16 17
3 17 285 284
3 285 17 18
3 18 286 285
3 286 18 19
3 19 287 286
3 287 19 20
3 20 288 287
3 288 20 1
3 1 21 288
POINT_DATA 289
SCALARS P float 1
LOOKUP_TABLE default
-0.849354
0.443009
0.500446
0.564155
1.875518
-4.212900
0.398170
-0.967997
0.687379
-0.625478
0.645518
-0.259946
0.549196
0.038759
0.492671
0.209947
0.481925
0.316439
0.493928
0.383204
0.481416
0.441599
0.464424
0.462071
0.482273
0.492306
0.468309
0.508355
0.496188
0.519922
0.523987
0.500396
0.558562
0.518811
0.574985
0.501546
0.629108
0.480998
0.705512
0.475099
0.822956
0.436700
1.027456
0.312541
1.390685
0.131199
1.847194
-0.033548
2.261761
0.360974
2.377756
2.653772
3.478302
4.492130
-0.503416
6.051843
0.354127
8.113121
-10.657061
5.640589
-5.752496
-0.396241
-2.206489
-0.813815
0.126505
6.712693
-4.164405
2.308747
0.529674
-0.190863
0.707346
0.389451
0.365397
0.559852
0.518771
0.442935
0.449782
0.468047
0.487647
0.282614
2.522290
-0.151819
2.155749
0.093193
1.430842
0.341162
1.118187
0.365564
0.902472
0.407148
0.757790
0.467295
0.653738
0.474075
-2.945800
5.850341
-2.277519
2.945447
-0.643399
1.995282
-0.202991
1.281047
0.253476
0.901517
0.433626
0.707295
0.445342
0.616923
0.529225
0.200370
2.645247
-2.489895
4.877355
-1.913598
2.346157
0.038977
1.225489
0.336878
0.859593
0.428991
0.692682
0.575665
0.535376
0.558980
-11.084415
13.965031
-5.429122
2.294393
0.625097
1.031847
0.023917
1.012054
0.373275
0.697199
0.585827
0.483164
0.534348
0.545041
0.466338
12.033386
-10.966546
4.548489
2.803623
-2.286235
2.637656
0.097136
0.892752
0.586255
0.557271
0.567712
0.625455
0.539725
0.560315
0.617879
-19.417510
24.196686
-12.286711
4.351967
1.043102
-0.449032
0.927096
0.291446
0.642785
0.484767
0.554422
0.446091
0.525747
0.426745
0.418152
12.231020
-16.424910
11.542197
-3.579961
1.134087
1.054644
0.527212
0.614690
0.579923
0.560883
0.479970
0.589953
0.516980
0.637073
0.531688
-7.215191
3.048371
-1.769890
2.760777
-1.528718
1.538819
0.369084
0.312329
0.763892
0.440204
0.417664
0.467916
0.586104
0.433199
0.510760
15.332559
-10.325303
6.879635
-3.301563
1.797231
0.309810
-0.222594
0.914422
0.129036
0.397742
0.527947
0.557655
0.402264
0.511920
0.538837
-7.257658
3.157393
-0.100578
-0.817867
1.731078
-1.074503
1.362319
-0.040890
0.492482
0.593862
0.397935
0.354427
0.492793
0.484254
0.415248
8.757151
-6.652557
3.911992
-1.720563
0.987435
-0.050437
0.504272
0.053774
0.625175
0.181832
0.407450
0.539894
0.445234
0.433970
0.511775
0.887458
-3.030662
3.252329
-2.583234
2.052840
-1.022553
1.039591
-0.087382
0.578908
0.250066
0.580829
0.302315
0.427988
0.489813
0.439524
2.992172
-3.165129
2.288788
-1.684489
1.369936
-0.743730
0.880780
-0.200444
0.672965
0.106098
0.513200
0.305288
0.552027
0.357702
0.482061
0.314317
-1.227296
0.879530
-0.756375
0.683393
-0.226091
0.584186
0.023679
0.552228
0.197613
0.546479
0.301013
0.492112
0.393422
0.501929
