# vtk DataFile Version 2.0
patchtest_tri3_mix
ASCII
DATASET POLYDATA
POINTS 1089 float
1.000000 0.000000 0.000000
5.000000 0.000000 0.000000
5.000000 5.000000 0.000000
0.000000 5.000000 0.000000
0.000000 1.000000 0.000000
0.707107 0.707107 0.000000
1.056028 0.000000 0.000000
1.114696 0.000000 0.000000
1.176128 0.000000 0.000000
1.240455 0.000000 0.000000
1.307813 0.000000 0.000000
1.378345 0.000000 0.000000
1.452201 0.000000 0.000000
1.529537 0.000000 0.000000
1.610516 0.000000 0.000000
1.695312 0.000000 0.000000
1.784103 0.000000 0.000000
1.877078 0.000000 0.000000
1.974434 0.000000 0.000000
2.076378 0.000000 0.000000
2.183125 0.000000 0.000000
2.294902 0.000000 0.000000
2.411946 0.000000 0.000000
2.534506 0.000000 0.000000
2.662840 0.000000 0.000000
2.797221 0.000000 0.000000
2.937935 0.000000 0.000000
3.085279 0.000000 0.000000
3.239566 0.000000 0.000000
3.401123 0.000000 0.000000
3.570293 0.000000 0.000000
3.747434 0.000000 0.000000
3.932922 0.000000 0.000000
4.127150 0.000000 0.000000
4.330531 0.000000 0.000000
4.543495 0.000000 0.000000
4.766493 0.000000 0.000000
5.000000 0.216340 0.000000
5.000000 0.442874 0.000000
5.000000 0.680082 0.000000
5.000000 0.928468 0.000000
5.000000 1.188558 0.000000
5.000000 1.460903 0.000000
5.000000 1.746081 0.000000
5.000000 2.044697 0.000000
5.000000 2.357384 0.000000
5.000000 2.684805 0.000000
5.000000 3.027654 0.000000
5.000000 3.386658 0.000000
5.000000 3.762579 0.000000
5.000000 4.156213 0.000000
5.000000 4.568395 0.000000
4.568395 5.000000 0.000000
4.156213 5.000000 0.000000
3.762579 5.000000 0.000000
3.386658 5.000000 0.000000
3.027654 5.000000 0.000000
2.684805 5.000000 0.000000
2.357384 5.000000 0.000000
2.044697 5.000000 0.000000
1.746081 5.000000 0.000000
1.460903 5.000000 0.000000
1.188558 5.000000 0.000000
0.928468 5.000000 0.000000
0.680082 5.000000 0.000000
0.442874 5.000000 0.000000
0.216340 5.000000 0.000000
0.000000 4.766493 0.000000
0.000000 4.543495 0.000000
0.000000 4.330531 0.000000
0.000000 4.127150 0.000000
0.000000 3.932922 0.000000
0.000000 3.747434 0.000000
0.000000 3.570293 0.000000
0.000000 3.401123 0.000000
0.000000 3.239566 0.000000
0.000000 3.085279 0.000000
0.000000 2.937935 0.000000
0.000000 2.797221 0.000000
0.000000 2.662840 0.000000
0.000000 2.534506 0.000000
0.000000 2.411946 0.000000
0.000000 2.294902 0.000000
0.000000 2.183125 0.000000
0.000000 2.076378 0.000000
0.000000 1.974434 0.000000
0.000000 1.877078 0.000000
0.000000 1.784103 0.000000
0.000000 1.695312 0.000000
0.000000 1.610516 0.000000
0.000000 1.529537 0.000000
0.000000 1.452201 0.000000
0.000000 1.378345 0.000000
0.000000 1.307813 0.000000
0.000000 1.240455 0.000000
0.000000 1.176128 0.000000
0.000000 1.114696 0.000000
0.000000 1.056028 0.000000
0.049068 0.998795 0.000000
0.098017 0.995185 0.000000
0.146730 0.989177 0.000000
0.195090 0.980785 0.000000
0.242980 0.970031 0.000000
0.290285 0.956940 0.000000
0.336890 0.941544 0.000000
0.382683 0.923880 0.000000
0.427555 0.903989 0.000000
0.471397 0.881921 0.000000
0.514103 0.857729 0.000000
0.555570 0.831470 0.000000
0.595699 0.803208 0.000000
0.634393 0.773010 0.000000
0.671559 0.740951 0.000000
0.740951 0.671559 0.000000
0.773010 0.634393 0.000000
0.803208 0.595699 0.000000
0.831470 0.555570 0.000000
0.857729 0.514103 0.000000
0.881921 0.471397 0.000000
0.903989 0.427555 0.000000
0.923880 0.382683 0.000000
0.941544 0.336890 0.000000
0.956940 0.290285 0.000000
0.970031 0.242980 0.000000
0.980785 0.195090 0.000000
0.989177 0.146730 0.000000
0.995185 0.098017 0.000000
0.998795 0.049068 0.000000
0.767237 0.767237 0.000000
0.830201 0.830201 0.000000
0.896131 0.896131 0.000000
0.965169 0.965169 0.000000
1.037459 1.037459 0.000000
1.113156 1.113156 0.000000
1.192419 1.192419 0.000000
1.275418 1.275418 0.000000
1.362327 1.362327 0.000000
1.453332 1.453332 0.000000
1.548624 1.548624 0.000000
1.648407 1.648407 0.000000
1.752892 1.752892 0.000000
1.862300 1.862300 0.000000
1.976864 1.976864 0.000000
2.096826 2.096826 0.000000
2.222440 2.222440 0.000000
2.353974 2.353974 0.000000
2.491705 2.491705 0.000000
2.635927 2.635927 0.000000
2.786944 2.786944 0.000000
2.945077 2.945077 0.000000
3.110661 3.110661 0.000000
3.284048 3.284048 0.000000
3.465605 3.465605 0.000000
3.655717 3.655717 0.000000
3.854787 3.854787 0.000000
4.063238 4.063238 0.000000
4.281510 4.281510 0.000000
4.510068 4.510068 0.000000
4.749395 4.749395 0.000000
0.051411 1.054840 0.000000
0.053864 1.113526 0.000000
0.056433 1.174976 0.000000
0.059123 1.239323 0.000000
0.061940 1.306701 0.000000
0.064889 1.377255 0.000000
0.067978 1.451132 0.000000
0.071212 1.528491 0.000000
0.074598 1.609496 0.000000
0.078144 1.694317 0.000000
0.081857 1.783135 0.000000
0.085745 1.876138 0.000000
0.089817 1.973523 0.000000
0.094080 2.075497 0.000000
0.098544 2.182277 0.000000
0.103218 2.294087 0.000000
0.108113 2.411167 0.000000
0.113238 2.533763 0.000000
0.118604 2.662136 0.000000
0.124224 2.796558 0.000000
0.130108 2.937314 0.000000
0.136270 3.084703 0.000000
0.142722 3.239036 0.000000
0.149478 3.400642 0.000000
0.156552 3.569862 0.000000
0.163960 3.747057 0.000000
0.171717 3.932601 0.000000
0.179839 4.126888 0.000000
0.188344 4.330329 0.000000
0.197250 4.543357 0.000000
0.206575 4.766423 0.000000
0.102848 1.051280 0.000000
0.107906 1.110018 0.000000
0.113202 1.171525 0.000000
0.118748 1.235929 0.000000
0.124555 1.303368 0.000000
0.130636 1.373985 0.000000
0.137003 1.447930 0.000000
0.143671 1.525359 0.000000
0.150652 1.606436 0.000000
0.157963 1.691334 0.000000
0.165618 1.780232 0.000000
0.173634 1.873319 0.000000
0.182027 1.970792 0.000000
0.190816 2.072858 0.000000
0.200019 2.179734 0.000000
0.209656 2.291646 0.000000
0.219747 2.408831 0.000000
0.230313 2.531538 0.000000
0.241378 2.660026 0.000000
0.252963 2.794570 0.000000
0.265095 2.935453 0.000000
0.277798 3.082974 0.000000
0.291100 3.237447 0.000000
0.305028 3.399198 0.000000
0.319613 3.568572 0.000000
0.334885 3.745926 0.000000
0.350877 3.931638 0.000000
0.367622 4.126100 0.000000
0.385156 4.329725 0.000000
0.403517 4.542945 0.000000
0.422742 4.766212 0.000000
0.154201 1.045356 0.000000
0.162024 1.104183 0.000000
0.170215 1.165781 0.000000
0.178792 1.230282 0.000000
0.187774 1.297823 0.000000
0.197178 1.368545 0.000000
0.207026 1.442601 0.000000
0.217338 1.520146 0.000000
0.228135 1.601345 0.000000
0.239442 1.686370 0.000000
0.251281 1.775401 0.000000
0.263678 1.868628 0.000000
0.276660 1.966247 0.000000
0.290252 2.068467 0.000000
0.304486 2.175503 0.000000
0.319390 2.287582 0.000000
0.334996 2.404943 0.000000
0.351338 2.527834 0.000000
0.368450 2.656516 0.000000
0.386368 2.791261 0.000000
0.405131 2.932355 0.000000
0.424777 3.080098 0.000000
0.445350 3.234803 0.000000
0.466891 3.396797 0.000000
0.489448 3.566424 0.000000
0.513068 3.744045 0.000000
0.537800 3.930035 0.000000
0.563698 4.124789 0.000000
0.590817 4.328719 0.000000
0.619213 4.542259 0.000000
0.648947 4.765862 0.000000
0.205363 1.037082 0.000000
0.216119 1.096032 0.000000
0.227382 1.157759 0.000000
0.239176 1.222395 0.000000
0.251526 1.290077 0.000000
0.264458 1.360948 0.000000
0.277999 1.435158 0.000000
0.292178 1.512866 0.000000
0.307025 1.594234 0.000000
0.322572 1.679437 0.000000
0.338851 1.768655 0.000000
0.355898 1.862077 0.000000
0.373747 1.959900 0.000000
0.392438 2.062334 0.000000
0.412010 2.169594 0.000000
0.432503 2.281908 0.000000
0.453963 2.399514 0.000000
0.476433 2.522662 0.000000
0.499963 2.651613 0.000000
0.524601 2.786640 0.000000
0.550400 2.928030 0.000000
0.577415 3.076081 0.000000
0.605702 3.231110 0.000000
0.635323 3.393443 0.000000
0.666339 3.563425 0.000000
0.698817 3.741417 0.000000
0.732825 3.927796 0.000000
0.768436 4.122958 0.000000
0.805724 4.327315 0.000000
0.844770 4.541302 0.000000
0.885656 4.765372 0.000000
0.256225 1.026479 0.000000
0.270094 1.085586 0.000000
0.284616 1.147479 0.000000
0.299822 1.212288 0.000000
0.315745 1.280151 0.000000
0.332419 1.351211 0.000000
0.349878 1.425620 0.000000
0.368160 1.503535 0.000000
0.387303 1.585122 0.000000
0.407348 1.670553 0.000000
0.428338 1.760009 0.000000
0.450316 1.853681 0.000000
0.473331 1.951766 0.000000
0.497430 2.054473 0.000000
0.522664 2.162020 0.000000
0.549088 2.274635 0.000000
0.576756 2.392556 0.000000
0.605729 2.516034 0.000000
0.636066 2.645329 0.000000
0.667833 2.780718 0.000000
0.701097 2.922486 0.000000
0.735928 3.070934 0.000000
0.772401 3.226377 0.000000
0.810592 3.389144 0.000000
0.850583 3.559581 0.000000
0.892458 3.738050 0.000000
0.936306 3.924927 0.000000
0.982221 4.120611 0.000000
1.030299 4.325515 0.000000
1.080642 4.540074 0.000000
1.133358 4.764744 0.000000
0.306681 1.013571 0.000000
0.323851 1.072871 0.000000
0.341829 1.134964 0.000000
0.360655 1.199984 0.000000
0.380368 1.268067 0.000000
0.401009 1.339358 0.000000
0.422623 1.414009 0.000000
0.445256 1.492177 0.000000
0.468955 1.574029 0.000000
0.493771 1.659737 0.000000
0.519756 1.749484 0.000000
0.546966 1.843460 0.000000
0.575457 1.941864 0.000000
0.605292 2.044905 0.000000
0.636532 2.152802 0.000000
0.669244 2.265782 0.000000
0.703497 2.384086 0.000000
0.739365 2.507965 0.000000
0.776922 2.637681 0.000000
0.816250 2.773509 0.000000
0.857430 2.915737 0.000000
0.900551 3.064667 0.000000
0.945704 3.220615 0.000000
0.992984 3.383911 0.000000
1.042493 3.554902 0.000000
1.094334 3.733950 0.000000
1.148618 3.921435 0.000000
1.205459 4.117754 0.000000
1.264980 4.323324 0.000000
1.327304 4.538580 0.000000
1.392566 4.763980 0.000000
0.356628 0.998391 0.000000
0.377297 1.057916 0.000000
0.398939 1.120246 0.000000
0.421602 1.185513 0.000000
0.445332 1.253856 0.000000
0.470180 1.325418 0.000000
0.496199 1.400353 0.000000
0.523444 1.478819 0.000000
0.551973 1.560982 0.000000
0.581847 1.647017 0.000000
0.613128 1.737106 0.000000
0.645883 1.831440 0.000000
0.680181 1.930219 0.000000
0.716095 2.033652 0.000000
0.753702 2.141959 0.000000
0.793081 2.255370 0.000000
0.834315 2.374124 0.000000
0.877493 2.498475 0.000000
0.922705 2.628685 0.000000
0.970047 2.765030 0.000000
1.019620 2.907800 0.000000
1.071529 3.057297 0.000000
[...]
POINT_DATA 1089
SCALARS P float 1
LOOKUP_TABLE default
-499.666667
459.693333
499.666667
539.640000
1499.000000
499.666667
-396.439919
-304.595711
-222.772390
-149.787261
-84.610589
-26.343770
25.799060
72.506567
114.383417
151.961484
185.709433
216.040907
243.321560
267.875101
289.988511
309.916551
327.885665
344.097370
358.731209
371.947319
383.888677
394.683069
404.444805
413.276237
421.269086
428.505613
435.059651
440.997520
446.378829
451.257197
455.680879
459.917139
460.621996
461.845233
463.601767
465.878503
468.631017
471.783627
475.233446
478.858249
482.527151
486.112389
489.500266
492.599569
495.346403
497.705233
501.628100
503.986930
506.733764
509.833067
513.220945
516.806182
520.475085
524.099888
527.549706
530.702316
533.454831
535.731567
537.488101
538.711337
539.416194
543.652454
548.076136
552.954504
558.335814
564.273682
570.827721
578.064247
586.057096
594.888528
604.650264
615.444656
627.386015
640.602124
655.235963
671.447668
689.416782
709.344822
731.458233
756.011774
783.292426
813.623900
847.371849
884.949916
926.826766
973.534274
1025.677103
1083.943923
1149.120595
1222.105723
1303.929045
1395.773252
1494.187937
1479.798090
1455.969042
1422.930279
1380.999983
1330.581965
1272.161779
1206.302042
1133.637020
1054.866518
970.749138
882.094976
789.757820
694.626928
597.618462
401.714871
304.706404
209.575512
117.238356
28.584193
-55.533187
-134.303690
-206.968711
-272.828447
-331.248633
-381.666651
-423.596947
-456.635709
-480.464757
-494.854604
499.666667
499.666667
499.666667
499.666667
499.666667
499.666667
499.666667
499.666667
499.666667
499.666667
499.666667
499.666667
499.666667
499.666667
499.666667
499.666667
499.666667
499.666667
499.666667
499.666667
499.666667
499.666667
499.666667
499.666667
499.666667
499.666667
499.666667
499.666667
499.666667
499.666667
499.666667
1391.417375
1299.984486
1218.532281
1145.882205
1081.008202
1023.014941
971.119480
924.635760
882.961451
845.566766
811.984915
781.803936
754.659685
730.229809
708.228550
688.402248
670.525448
654.397526
639.839747
626.692699
614.814062
604.076646
594.366673
585.582279
577.632181
570.434516
563.915807
558.010064
552.657968
547.806172
543.406660
1378.331782
1288.085309
1207.712055
1136.043011
1072.060878
1014.878348
963.719816
917.905916
876.840425
839.999116
806.920263
777.196509
750.467896
726.415878
704.758154
685.244204
667.651427
651.781790
637.458908
624.525506
612.841204
602.280570
592.731429
584.093366
576.276418
569.199917
562.791477
556.986092
551.725345
546.956701
542.632887
1356.567232
1268.216216
1189.580799
1119.503239
1056.977164
1001.125724
951.183224
906.479625
866.427425
830.510515
798.274695
769.319563
743.291576
719.878087
698.802213
679.818403
662.708606
647.278951
633.356859
620.788533
609.436762
599.179014
589.905753
581.518972
573.930901
567.062875
560.844328
555.211915
550.108728
545.483611
541.290543
1326.282113
1240.480768
1164.200025
1096.292393
1035.762431
981.744482
933.484001
890.321847
851.681015
817.055408
786.000292
758.124158
733.081776
710.568234
690.313824
672.079631
655.653727
640.847879
627.494692
615.445128
604.566342
594.739797
585.859616
577.831141
570.569660
563.999303
558.052057
552.666905
547.789067
543.369325
539.363428
1287.745998
1205.109664
1131.769049
1066.584198
1008.569329
956.869734
910.742510
869.540410
832.698269
799.721553
770.176670
743.682735
719.904569
698.546703
679.348260
662.078547
646.533267
632.531247
619.911611
608.531323
598.263065
588.993371
580.621022
573.055623
566.216370
560.030968
554.434671
549.369452
544.783260
540.629368
536.865803
1241.341196
1162.465936
1092.633003
1030.706744
975.709460
926.797000
883.238532
844.399694
809.728523
778.743640
751.024313
726.202055
703.953507
683.994385
666.074317
649.972434
635.493583
622.465072
610.733873
600.164191
590.635375
582.040096
574.282761
567.278142
560.950167
555.230869
550.059468
545.381556
541.148393
537.316276
533.845989
1187.561961
1113.046367
1047.285742
989.146321
937.657744
891.986802
851.415867
815.325083
783.177584
754.507193
728.908136
706.026403
685.552478
667.215191
650.776507
636.027091
622.782528
610.880086
600.175944
590.542801
581.867823
574.050860
567.002910
560.644782
554.905931
549.723447
545.041166
540.808904
536.981771
533.519580
530.386322
1127.011150
1057.478546
996.366707
942.543743
895.047999
853.059428
815.876307
782.896202
753.600332
727.540652
704.329158
683.628975
665.146903
648.627174
633.846181
620.608039
608.740808
598.093291
588.532296
579.940300
572.213440
565.259789
558.997869
553.355366
548.268016
543.678642
539.536310
535.795599
532.415963
529.361172
526.598817
1060.394130
996.513167
940.651157
891.682367
848.658849
810.778952
777.362033
747.828029
721.680852
698.494829
677.903574
659.590809
643.282751
628.741794
615.761215
604.160746
593.782841
584.489530
576.159744
568.687048
561.977711
555.949045
550.527994
545.649909
541.257505
537.299948
533.732072
530.513699
527.609045
524.986204
522.616698
988.509867
931.011393
881.033562
837.467707
799.389961
766.026627
736.726771
710.940370
688.200788
668.110630
650.330262
634.568448
620.574662
608.132764
597.055757
587.181433
578.368736
570.494716
563.451967
557.146465
551.495739
546.427310
541.877373
537.789657
534.114465
530.807828
527.830799
525.148824
522.731211
520.550663
518.582876
912.239230
861.927414
818.504495
780.899218
748.229538
719.764989
694.897375
673.117763
653.998291
637.177678
622.349618
609.253419
597.666411
587.397759
578.283394
570.181835
562.970733
556.544008
550.809451
545.686724
541.105668
537.004892
533.330563
530.035389
527.077749
524.420948
522.032586
519.884007
517.949833
516.207555
514.637183
832.530655
790.286622
754.121864
723.035638
696.215011
672.995134
652.828853
635.263252
619.921392
606.487988
594.698083
584.328038
575.188314
567.117652
559.978360
553.652470
548.038587
543.049304
538.609054
534.652334
531.122223
527.969137
525.149786
522.626299
520.365472
518.338143
516.518652
514.884380
513.415357
512.093927
510.904452
750.383473
717.160146
688.977860
664.955960
644.389695
626.710600
611.456789
598.250439
586.780556
576.789675
568.063496
560.422750
553.716774
547.818389
542.619801
538.029297
533.968563
530.370500
527.177435
524.339650
521.814162
519.563711
517.555918
515.762579
514.159068
512.723843
511.438017
510.285002
509.250200
508.320747
507.485283
666.829283
643.636791
624.163410
607.718596
593.758697
581.851730
571.651530
562.878530
555.305327
548.745714
543.046281
538.079916
533.740733
529.940095
526.603459
523.667861
521.079907
518.794143
516.771738
514.979405
513.388524
511.974411
510.715718
509.593934
508.592968
507.698798
506.899179
506.183397
505.542054
504.966895
504.450656
582.911927
570.793629
560.732236
552.321595
545.247540
539.264430
534.178310
529.834656
526.109341
522.901898
520.130440
517.727792
515.638515
513.816601
512.223670
510.827548
509.601145
508.521553
507.569323
506.727883
505.983059
505.322694
504.736325
504.214919
503.750662
503.336770
502.967345
502.637241
502.341966
502.077583
501.840639
416.421406
428.539704
438.601097
447.011739
454.085794
460.068903
465.155023
469.498677
473.223993
476.431436
479.202893
481.605541
483.694818
485.516732
487.109664
488.505785
489.732188
490.811780
491.764010
492.605451
493.350274
494.010639
494.597009
495.118414
495.582671
495.996563
496.365989
496.696092
496.991368
497.255751
497.492694
332.504050
355.696542
375.169923
391.614737
405.574636
417.481603
427.681803
436.454803
444.028006
450.587619
456.287052
461.253418
465.592600
469.393238
472.729875
475.665472
478.253426
480.539190
482.561596
484.353928
485.944809
487.358922
488.617615
489.739399
490.740365
491.634535
492.434154
493.149937
493.791280
494.366438
494.882678
248.949860
282.173186
310.355473
334.377373
354.943638
372.622733
387.876544
401.082894
412.552777
422.543658
431.269837
438.910583
445.616559
451.514945
456.713532
461.304036
465.364770
468.962834
472.155898
474.993683
477.519171
479.769622
481.777415
483.570755
485.174265
486.609490
487.895316
489.048332
490.083133
491.012586
491.848050
166.802677
209.046710
245.211468
276.297695
303.118322
326.338199
346.504480
364.070081
379.411941
392.845345
404.635250
415.005295
424.145019
432.215681
439.354973
445.680863
451.294746
456.284029
460.724280
464.680999
468.211110
471.364197
474.183547
476.707035
478.967862
480.995190
482.814681
484.448953
485.917976
487.239407
488.428881
87.094102
137.405918
180.828837
218.434115
251.103795
279.568344
304.435958
326.215569
345.335042
362.155655
376.983715
390.079914
401.666922
411.935574
421.049939
429.151499
436.362601
442.789326
448.523882
453.646610
458.227665
462.328441
466.002770
469.297944
472.255585
474.912385
477.300747
479.449326
481.383500
483.125778
484.696150
10.823464
68.321939
118.299770
161.865625
199.943371
233.306705
262.606562
288.392963
311.132545
331.222703
349.003071
364.764885
378.758671
391.200569
402.277576
412.151900
420.964597
428.838618
435.881367
442.186868
447.837594
452.906023
457.455961
461.543676
465.218869
468.525505
471.502535
474.184510
476.602123
478.782670
480.750457
-61.060799
2.820165
58.682175
107.650965
150.674483
188.554381
221.971300
251.505304
277.652481
300.838504
321.429759
339.742524
356.050582
370.591539
383.572118
395.172588
405.550492
414.843803
423.173590
430.646285
437.355622
443.384288
448.805340
453.683424
458.075828
462.033386
465.601261
468.819634
471.724289
474.347130
476.716635
-127.677819
-58.145215
2.966625
56.789589
104.285333
146.273905
183.457026
216.437130
245.733001
271.792681
295.004175
315.704358
334.186430
350.706160
365.487152
378.725295
390.592525
401.240043
410.801037
419.393033
427.119893
434.073544
440.335464
445.977967
451.065317
455.654691
459.797024
463.537734
466.917370
469.972162
472.734516
-188.228629
-113.713036
-47.952410
10.187011
61.675588
107.346531
147.917465
184.008250
216.155749
244.826140
270.425197
293.306931
313.780856
332.118142
348.556827
363.306243
376.550806
388.453247
399.157389
408.790532
417.465511
425.282474
432.330423
438.688551
444.427402
449.609887
454.292167
458.524429
462.351562
465.813753
468.947011
-242.007864
-163.132604
-93.299671
-31.373411
23.623873
72.536333
116.094801
154.933638
189.604810
220.589693
248.309020
273.131278
295.379826
315.338948
333.259016
349.360899
363.839750
376.868261
388.599461
399.169143
408.697958
417.293238
425.050572
432.055191
438.383167
444.102464
449.273866
453.951777
458.184940
462.017057
465.487344
-288.412666
-205.776331
-132.435717
-67.250866
-9.235996
42.463599
88.590823
129.792923
166.635064
199.611780
229.156664
255.650598
279.428764
300.786630
319.985073
337.254786
352.800066
366.802086
379.421723
390.802010
401.070269
410.339962
418.712311
426.277710
433.116963
439.302366
444.898662
449.963881
454.550074
458.703965
462.467530
-326.948780
-241.147435
-164.866693
-96.959060
-36.429098
17.588851
65.849332
109.011486
147.652318
182.277925
213.333041
241.209175
266.251557
288.765099
309.019509
327.253702
343.679606
358.485454
371.838641
383.888205
394.766991
404.593537
413.473717
421.502192
428.763673
435.334030
441.281277
446.666429
451.544267
455.964009
459.969905
-357.233899
-268.882883
-190.247466
-120.169906
-57.643831
-1.792391
48.150110
92.853708
132.905908
168.822818
201.058638
230.013771
256.041758
279.455246
300.531120
319.514930
336.624727
352.054382
365.976474
378.544801
389.896571
400.154319
409.427580
417.814361
425.402432
432.270458
438.489005
444.121418
449.224605
453.849723
458.042790
-378.998449
-288.751976
-208.378722
-136.709678
-72.727544
-15.545015
35.613517
81.427417
122.492909
159.334217
192.413070
222.136825
248.865438
272.917455
294.575179
314.089130
331.681906
347.551543
361.874426
374.807827
386.492130
397.052763
406.601904
415.239967
423.056916
430.133417
436.541857
442.347241
447.607988
452.376632
456.700446
-392.084042
-300.651153
-219.198947
-146.548872
-81.674869
-23.681608
28.213853
74.697573
116.371882
153.766567
187.348418
217.529397
244.673649
269.103524
291.104783
310.931086
328.807885
344.935807
359.493586
372.640634
384.519271
395.256688
404.966660
413.751054
421.701152
428.898818
435.417526
441.323270
446.675365
451.527162
455.926674
