# vtk DataFile Version 2.0
cantilever_tri3_mix
ASCII
DATASET POLYDATA
POINTS 81 float
1.000000 0.000000 0.000000
5.000000 0.000000 0.000000
5.000000 5.000000 0.000000
0.000000 5.000000 0.000000
0.000000 1.000000 0.000000
0.707107 0.707107 0.000000
1.264390 0.000000 0.000000
1.575437 0.000000 0.000000
1.941375 0.000000 0.000000
2.371890 0.000000 0.000000
2.878378 0.000000 0.000000
3.474247 0.000000 0.000000
4.175268 0.000000 0.000000
5.000000 0.963598 0.000000
5.000000 2.097242 0.000000
5.000000 3.430942 0.000000
3.430942 5.000000 0.000000
2.097242 5.000000 0.000000
0.963598 5.000000 0.000000
0.000000 4.175268 0.000000
0.000000 3.474247 0.000000
0.000000 2.878378 0.000000
0.000000 2.371890 0.000000
0.000000 1.941375 0.000000
0.000000 1.575437 0.000000
0.000000 1.264390 0.000000
0.195090 0.980785 0.000000
0.382683 0.923880 0.000000
0.555570 0.831470 0.000000
0.831470 0.555570 0.000000
0.923880 0.382683 0.000000
0.980785 0.195090 0.000000
0.990856 0.990856 0.000000
1.324679 1.324679 0.000000
1.717412 1.717412 0.000000
2.179451 2.179451 0.000000
2.723026 2.723026 0.000000
3.362526 3.362526 0.000000
4.114879 4.114879 0.000000
0.245887 1.246445 0.000000
0.305647 1.558987 0.000000
0.375954 1.926682 0.000000
0.458667 2.359265 0.000000
0.555977 2.868187 0.000000
0.670460 3.466917 0.000000
0.805145 4.171307 0.000000
0.496012 1.193301 0.000000
0.629339 1.510267 0.000000
0.786194 1.883169 0.000000
0.970730 2.321877 0.000000
1.187831 2.838003 0.000000
1.443244 3.445211 0.000000
1.743730 4.159574 0.000000
0.745625 1.106999 0.000000
0.969219 1.431151 0.000000
1.232271 1.812507 0.000000
1.541744 2.261161 0.000000
1.905829 2.788989 0.000000
2.334165 3.409963 0.000000
2.838089 4.140520 0.000000
1.106999 0.745625 0.000000
1.431151 0.969219 0.000000
1.812507 1.232271 0.000000
2.261161 1.541744 0.000000
2.788989 1.905829 0.000000
3.409963 2.334165 0.000000
4.140520 2.838089 0.000000
1.193301 0.496012 0.000000
1.510267 0.629339 0.000000
1.883169 0.786194 0.000000
2.321877 0.970730 0.000000
2.838003 1.187831 0.000000
3.445211 1.443244 0.000000
4.159574 1.743730 0.000000
1.246445 0.245887 0.000000
1.558987 0.305647 0.000000
1.926682 0.375954 0.000000
2.359265 0.458667 0.000000
2.868187 0.555977 0.000000
3.466917 0.670460 0.000000
4.171307 0.805145 0.000000
POLYGONS 128 512
3 4 26 25
3 25 26 39
3 25 39 24
3 24 39 40
3 24 40 23
3 23 40 41
3 23 41 22
3 22 41 42
3 22 42 21
3 21 42 43
3 21 43 20
3 20 43 44
3 20 44 19
3 19 44 45
3 19 45 3
3 3 45 18
3 26 27 39
3 39 27 46
3 39 46 40
3 40 46 47
3 40 47 41
3 41 47 48
3 41 48 42
3 42 48 49
3 42 49 43
3 43 49 50
3 43 50 44
3 44 50 51
3 44 51 45
3 45 51 52
3 45 52 18
3 18 52 17
3 27 28 46
3 46 28 53
3 46 53 47
3 47 53 54
3 47 54 48
3 48 54 55
3 48 55 49
3 49 55 56
3 49 56 50
3 50 56 57
3 50 57 51
3 51 57 58
3 51 58 52
3 52 58 59
3 52 59 17
3 17 59 16
3 28 5 53
3 53 5 32
3 53 32 54
3 54 32 33
3 54 33 55
3 55 33 34
3 55 34 56
3 56 34 35
3 56 35 57
3 57 35 36
3 57 36 58
3 58 36 37
3 58 37 59
3 59 37 38
3 59 38 16
3 16 38 2
3 5 29 60
3 60 32 5
3 32 60 61
3 61 33 32
3 33 61 62
3 62 34 33
3 34 62 63
3 63 35 34
3 35 63 64
3 64 36 35
3 36 64 65
3 65 37 36
3 37 65 66
3 66 38 37
3 38 66 15
3 15 2 38
3 29 30 67
3 67 60 29
3 60 67 68
3 68 61 60
3 61 68 69
3 69 62 61
3 62 69 70
3 70 63 62
3 63 70 71
3 71 64 63
3 64 71 72
3 72 65 64
3 65 72 73
3 73 66 65
3 66 73 14
3 14 15 66
3 30 31 74
3 74 67 30
3 67 74 75
3 75 68 67
3 68 75 76
3 76 69 68
3 69 76 77
3 77 70 69
3 70 77 78
3 78 71 70
3 71 78 79
3 79 72 71
3 72 79 80
3 80 73 72
3 73 80 13
3 13 14 73
3 31 0 6
3 6 74 31
3 74 6 7
3 7 75 74
3 75 7 8
3 8 76 75
3 76 8 9
3 9 77 76
3 77 9 10
3 10 78 77
3 78 10 11
3 11 79 78
3 79 11 12
3 12 80 79
3 80 12 1
3 1 13 80
POINT_DATA 81
VECTORS U float
0.000731 0.000004 0.000000
0.001394 -0.000004 0.000000
0.001279 -0.001224 0.000000
0.000007 -0.001291 0.000000
-0.000014 -0.000227 0.000000
0.000509 -0.000161 0.000000
0.000782 -0.000000 0.000000
0.000797 0.000001 0.000000
0.000827 0.000001 0.000000
0.000885 -0.000001 0.000000
0.000962 0.000001 0.000000
0.001073 -0.000002 0.000000
0.001214 0.000000 0.000000
0.001383 -0.000216 0.000000
0.001350 -0.000483 0.000000
0.001311 -0.000820 0.000000
0.000869 -0.001239 0.000000
0.000520 -0.001260 0.000000
0.000233 -0.001283 0.000000
-0.000003 -0.001090 0.000000
0.000005 -0.000928 0.000000
-0.000005 -0.000791 0.000000
0.000004 -0.000673 0.000000
0.000000 -0.000574 0.000000
0.000001 -0.000482 0.000000
-0.000001 -0.000397 0.000000
0.000162 -0.000244 0.000000
0.000287 -0.000237 0.000000
0.000401 -0.000203 0.000000
0.000606 -0.000119 0.000000
0.000684 -0.000082 0.000000
0.000730 -0.000047 0.000000
0.000436 -0.000183 0.000000
0.000450 -0.000262 0.000000
0.000512 -0.000366 0.000000
0.000608 -0.000491 0.000000
0.000729 -0.000636 0.000000
0.000880 -0.000803 0.000000
0.001062 -0.000998 0.000000
0.000096 -0.000370 0.000000
0.000083 -0.000464 0.000000
0.000093 -0.000556 0.000000
0.000105 -0.000655 0.000000
0.000132 -0.000773 0.000000
0.000159 -0.000916 0.000000
0.000195 -0.001084 0.000000
0.000200 -0.000323 0.000000
0.000185 -0.000408 0.000000
0.000206 -0.000500 0.000000
0.000240 -0.000607 0.000000
0.000294 -0.000732 0.000000
0.000355 -0.000878 0.000000
0.000432 -0.001053 0.000000
0.000314 -0.000256 0.000000
0.000308 -0.000333 0.000000
0.000348 -0.000429 0.000000
0.000411 -0.000544 0.000000
0.000494 -0.000677 0.000000
0.000598 -0.000836 0.000000
0.000720 -0.001020 0.000000
0.000565 -0.000107 0.000000
0.000572 -0.000147 0.000000
0.000619 -0.000220 0.000000
0.000695 -0.000308 0.000000
0.000801 -0.000410 0.000000
0.000938 -0.000528 0.000000
0.001105 -0.000662 0.000000
0.000677 -0.000054 0.000000
0.000688 -0.000067 0.000000
0.000726 -0.000112 0.000000
0.000790 -0.000165 0.000000
0.000882 -0.000230 0.000000
0.001004 -0.000303 0.000000
0.001159 -0.000387 0.000000
0.000752 -0.000021 0.000000
0.000770 -0.000022 0.000000
0.000803 -0.000044 0.000000
0.000858 -0.000068 0.000000
0.000942 -0.000098 0.000000
0.001055 -0.000133 0.000000
0.001201 -0.000171 0.000000
CELL_DATA 128
SCALARS P float 1
LOOKUP_TABLE default
1613.847718
620.818251
550.534797
1330.799218
1361.726066
431.210031
288.210349
950.818984
944.148057
385.093804
465.456737
739.968727
617.036824
472.467402
521.476337
606.297103
2673.320218
117.356364
284.709767
762.698984
1770.709096
507.962706
459.122215
567.270357
776.276731
534.336998
651.511250
406.752620
654.709231
619.004815
395.461122
597.945989
2319.020237
-617.062214
1026.202964
1859.571452
-269.069115
755.954303
915.908819
584.861628
547.844902
519.197327
657.029275
502.673697
498.047840
599.955677
435.022448
554.334199
1304.427175
269.725971
448.590327
571.379029
453.141550
760.857350
214.325453
732.539378
579.267938
312.278941
616.141503
470.317387
458.937114
641.905196
402.436318
546.725861
533.312622
532.217116
910.862202
20.041852
782.164142
191.259032
791.040208
300.988370
363.269911
730.654195
312.234694
554.832693
518.600752
343.973610
624.124598
446.889933
108.174230
-184.749249
-296.143964
381.756749
715.086595
91.021847
358.828081
321.180889
444.885230
468.992243
411.718291
550.348609
430.119359
433.566921
560.527145
434.435985
-322.031041
-164.973454
276.212707
387.231593
89.844316
-41.695480
478.330007
550.392538
135.934656
442.353894
493.062805
423.798412
391.805187
450.312236
535.681659
419.036777
-421.800831
-217.778410
132.307924
97.008684
-22.646262
258.855470
417.826781
226.671912
250.087138
482.830070
449.766940
331.793444
407.215045
466.020936
471.865972
420.225543
