# vtk DataFile Version 2.0
cantilever_tri3_mix
ASCII
DATASET POLYDATA
POINTS 289 float
1.000000 0.000000 0.000000
5.000000 0.000000 0.000000
5.000000 5.000000 0.000000
0.000000 5.000000 0.000000
0.000000 1.000000 0.000000
0.707107 0.707107 0.000000
1.112321 0.000000 0.000000
1.235752 0.000000 0.000000
1.371389 0.000000 0.000000
1.520441 0.000000 0.000000
1.684235 0.000000 0.000000
1.864228 0.000000 0.000000
2.062022 0.000000 0.000000
2.279379 0.000000 0.000000
2.518232 0.000000 0.000000
2.780709 0.000000 0.000000
3.069144 0.000000 0.000000
3.386106 0.000000 0.000000
3.734416 0.000000 0.000000
4.117174 0.000000 0.000000
4.537788 0.000000 0.000000
5.000000 0.438969 0.000000
5.000000 0.921351 0.000000
5.000000 1.451443 0.000000
5.000000 2.033960 0.000000
5.000000 2.674090 0.000000
5.000000 3.377529 0.000000
5.000000 4.150539 0.000000
4.150539 5.000000 0.000000
3.377529 5.000000 0.000000
2.674090 5.000000 0.000000
2.033960 5.000000 0.000000
1.451443 5.000000 0.000000
0.921351 5.000000 0.000000
0.438969 5.000000 0.000000
0.000000 4.537788 0.000000
0.000000 4.117174 0.000000
0.000000 3.734416 0.000000
0.000000 3.386106 0.000000
0.000000 3.069144 0.000000
0.000000 2.780709 0.000000
0.000000 2.518232 0.000000
0.000000 2.279379 0.000000
0.000000 2.062022 0.000000
0.000000 1.864228 0.000000
0.000000 1.684235 0.000000
0.000000 1.520441 0.000000
0.000000 1.371389 0.000000
0.000000 1.235752 0.000000
0.000000 1.112321 0.000000
0.098017 0.995185 0.000000
0.195090 0.980785 0.000000
0.290285 0.956940 0.000000
0.382683 0.923880 0.000000
0.471397 0.881921 0.000000
0.555570 0.831470 0.000000
0.634393 0.773010 0.000000
0.773010 0.634393 0.000000
0.831470 0.555570 0.000000
0.881921 0.471397 0.000000
0.923880 0.382683 0.000000
0.956940 0.290285 0.000000
0.980785 0.195090 0.000000
0.995185 0.098017 0.000000
0.827653 0.827653 0.000000
0.960121 0.960121 0.000000
1.105690 1.105690 0.000000
1.265656 1.265656 0.000000
1.441444 1.441444 0.000000
1.634616 1.634616 0.000000
1.846894 1.846894 0.000000
2.080166 2.080166 0.000000
2.336509 2.336509 0.000000
2.618205 2.618205 0.000000
2.927760 2.927760 0.000000
3.267931 3.267931 0.000000
3.641746 3.641746 0.000000
4.052531 4.052531 0.000000
4.503943 4.503943 0.000000
0.107591 1.107641 0.000000
0.118112 1.231220 0.000000
0.129674 1.367021 0.000000
0.142378 1.516252 0.000000
0.156340 1.680243 0.000000
0.171682 1.860453 0.000000
0.188542 2.058486 0.000000
0.207069 2.276104 0.000000
0.227428 2.515245 0.000000
0.249801 2.778037 0.000000
0.274387 3.066820 0.000000
0.301404 3.384163 0.000000
0.331093 3.732892 0.000000
0.363718 4.116111 0.000000
0.399571 4.537231 0.000000
0.215484 1.093646 0.000000
0.237895 1.217669 0.000000
0.262522 1.353958 0.000000
0.289584 1.503727 0.000000
0.319324 1.668307 0.000000
0.352004 1.849165 0.000000
0.387917 2.047909 0.000000
0.427381 2.266310 0.000000
0.470749 2.506311 0.000000
0.518405 2.770048 0.000000
0.570775 3.059869 0.000000
0.628324 3.378353 0.000000
0.691565 3.728337 0.000000
0.761061 4.112933 0.000000
0.837430 4.535567 0.000000
0.322890 1.070471 0.000000
0.358721 1.195230 0.000000
0.398095 1.332327 0.000000
0.441363 1.482984 0.000000
0.488911 1.648541 0.000000
0.541161 1.830472 0.000000
0.598579 2.030395 0.000000
0.661675 2.250092 0.000000
0.731012 2.491516 0.000000
0.807206 2.756818 0.000000
0.890935 3.048359 0.000000
0.982946 3.368733 0.000000
1.084057 3.720792 0.000000
1.195168 4.107671 0.000000
1.317267 4.532812 0.000000
0.429052 1.038338 0.000000
0.480006 1.164117 0.000000
0.536000 1.302336 0.000000
0.597532 1.454225 0.000000
0.665149 1.621135 0.000000
0.739453 1.804554 0.000000
0.821107 2.006112 0.000000
0.910836 2.227605 0.000000
1.009439 2.471004 0.000000
1.117794 2.738475 0.000000
1.236866 3.032400 0.000000
1.367714 3.355393 0.000000
1.511503 3.710332 0.000000
1.669513 4.100374 0.000000
1.843150 4.528992 0.000000
0.533249 0.997558 0.000000
0.601219 1.124632 0.000000
0.675911 1.264274 0.000000
0.757990 1.417726 0.000000
0.848187 1.586355 0.000000
0.947304 1.771661 0.000000
1.056224 1.975294 0.000000
1.175917 2.199067 0.000000
1.307447 2.444971 0.000000
1.451985 2.715196 0.000000
1.610819 3.012146 0.000000
1.785362 3.338464 0.000000
1.977167 3.697056 0.000000
2.187941 4.091113 0.000000
2.419562 4.524143 0.000000
0.634812 0.948523 0.000000
0.721891 1.077154 0.000000
0.817581 1.218506 0.000000
0.922736 1.373838 0.000000
1.038291 1.544533 0.000000
1.165274 1.732110 0.000000
1.304816 1.938238 0.000000
1.458159 2.164752 0.000000
1.626667 2.413669 0.000000
1.811842 2.687204 0.000000
2.015330 2.987792 0.000000
2.238943 3.318109 0.000000
2.484672 3.681094 0.000000
2.754704 4.079978 0.000000
3.051443 4.518313 0.000000
0.733128 0.891706 0.000000
0.841627 1.022140 0.000000
0.960858 1.165475 0.000000
1.091880 1.322985 0.000000
1.235861 1.496074 0.000000
1.394081 1.686281 0.000000
1.567950 1.895300 0.000000
1.759014 2.124991 0.000000
1.968975 2.377399 0.000000
2.199701 2.654770 0.000000
2.453246 2.959573 0.000000
2.731867 3.294522 0.000000
3.038044 3.662597 0.000000
3.374503 4.067076 0.000000
3.744237 4.511558 0.000000
0.891706 0.733128 0.000000
1.022140 0.841627 0.000000
1.165475 0.960858 0.000000
1.322985 1.091880 0.000000
1.496074 1.235861 0.000000
1.686281 1.394081 0.000000
1.895300 1.567950 0.000000
2.124991 1.759014 0.000000
2.377399 1.968975 0.000000
2.654770 2.199701 0.000000
2.959573 2.453246 0.000000
3.294522 2.731867 0.000000
3.662597 3.038044 0.000000
4.067076 3.374503 0.000000
4.511558 3.744237 0.000000
0.948523 0.634812 0.000000
1.077154 0.721891 0.000000
1.218506 0.817581 0.000000
1.373838 0.922736 0.000000
1.544533 1.038291 0.000000
1.732110 1.165274 0.000000
1.938238 1.304816 0.000000
2.164752 1.458159 0.000000
2.413669 1.626667 0.000000
2.687204 1.811842 0.000000
2.987792 2.015330 0.000000
3.318109 2.238943 0.000000
3.681094 2.484672 0.000000
4.079978 2.754704 0.000000
4.518313 3.051443 0.000000
0.997558 0.533249 0.000000
1.124632 0.601219 0.000000
1.264274 0.675911 0.000000
1.417726 0.757990 0.000000
1.586355 0.848187 0.000000
1.771661 0.947304 0.000000
1.975294 1.056224 0.000000
2.199067 1.175917 0.000000
2.444971 1.307447 0.000000
2.715196 1.451985 0.000000
3.012146 1.610819 0.000000
3.338464 1.785362 0.000000
3.697056 1.977167 0.000000
4.091113 2.187941 0.000000
4.524143 2.419562 0.000000
1.038338 0.429052 0.000000
1.164117 0.480006 0.000000
1.302336 0.536000 0.000000
1.454225 0.597532 0.000000
1.621135 0.665149 0.000000
1.804554 0.739453 0.000000
2.006112 0.821107 0.000000
2.227605 0.910836 0.000000
2.471004 1.009439 0.000000
2.738475 1.117794 0.000000
3.032400 1.236866 0.000000
3.355393 1.367714 0.000000
3.710332 1.511503 0.000000
4.100374 1.669513 0.000000
4.528992 1.843150 0.000000
1.070471 0.322890 0.000000
1.195230 0.358721 0.000000
1.332327 0.398095 0.000000
1.482984 0.441363 0.000000
1.648541 0.488911 0.000000
1.830472 0.541161 0.000000
2.030395 0.598579 0.000000
2.250092 0.661675 0.000000
2.491516 0.731012 0.000000
2.756818 0.807206 0.000000
3.048359 0.890935 0.000000
3.368733 0.982946 0.000000
3.720792 1.084057 0.000000
4.107671 1.195168 0.000000
4.532812 1.317267 0.000000
1.093646 0.215484 0.000000
1.217669 0.237895 0.000000
1.353958 0.262522 0.000000
1.503727 0.289584 0.000000
1.668307 0.319324 0.000000
1.849165 0.352004 0.000000
2.047909 0.387917 0.000000
2.266310 0.427381 0.000000
2.506311 0.470749 0.000000
2.770048 0.518405 0.000000
3.059869 0.570775 0.000000
3.378353 0.628324 0.000000
3.728337 0.691565 0.000000
4.112933 0.761061 0.000000
4.535567 0.837430 0.000000
1.107641 0.107591 0.000000
1.231220 0.118112 0.000000
1.367021 0.129674 0.000000
1.516252 0.142378 0.000000
1.680243 0.156340 0.000000
1.860453 0.171682 0.000000
2.058486 0.188542 0.000000
2.276104 0.207069 0.000000
2.515245 0.227428 0.000000
2.778037 0.249801 0.000000
3.066820 0.274387 0.000000
3.384163 0.301404 0.000000
3.732892 0.331093 0.000000
4.116111 0.363718 0.000000
4.537231 0.399571 0.000000
POLYGONS 512 2048
3 4 50 49
3 49 50 79
3 49 79 48
3 48 79 80
3 48 80 47
3 47 80 81
3 47 81 46
3 46 81 82
3 46 82 45
3 45 82 83
3 45 83 44
3 44 83 84
3 44 84 43
3 43 84 85
3 43 85 42
3 42 85 86
3 42 86 41
3 41 86 87
3 41 87 40
3 40 87 88
3 40 88 39
3 39 88 89
3 39 89 38
3 38 89 90
3 38 90 37
3 37 90 91
3 37 91 36
3 36 91 92
3 36 92 35
3 35 92 93
3 35 93 3
3 3 93 34
3 50 51 79
3 79 51 94
3 79 94 80
3 80 94 95
3 80 95 81
3 81 95 96
3 81 96 82
3 82 96 97
3 82 97 83
3 83 97 98
3 83 98 84
3 84 98 99
3 84 99 85
3 85 99 100
3 85 100 86
3 86 100 101
3 86 101 87
3 87 101 102
3 87 102 88
3 88 102 103
3 88 103 89
3 89 103 104
3 89 104 90
3 90 104 105
3 90 105 91
3 91 105 106
3 91 106 92
3 92 106 107
3 92 107 93
3 93 107 108
3 93 108 34
3 34 108 33
3 51 52 94
3 94 52 109
3 94 109 95
3 95 109 110
3 95 110 96
3 96 110 111
3 96 111 97
3 97 111 112
3 97 112 98
3 98 112 113
3 98 113 99
3 99 113 114
3 99 114 100
3 100 114 115
3 100 115 101
3 101 115 116
3 101 116 102
3 102 116 117
3 102 117 103
3 103 117 118
3 103 118 104
3 104 118 119
3 104 119 105
3 105 119 120
3 105 120 106
3 106 120 121
3 106 121 107
3 107 121 122
3 107 122 108
3 108 122 123
3 108 123 33
3 33 123 32
3 52 53 109
3 109 53 124
3 109 124 110
3 110 124 125
3 110 125 111
3 111 125 126
3 111 126 112
3 112 126 127
3 112 127 113
3 113 127 128
3 113 128 114
3 114 128 129
3 114 129 115
3 115 129 130
3 115 130 116
3 116 130 131
3 116 131 117
3 117 131 132
3 117 132 118
3 118 132 133
3 118 133 119
3 119 133 134
3 119 134 120
3 120 134 135
3 120 135 121
3 121 135 136
3 121 136 122
3 122 136 137
3 122 137 123
3 123 137 138
3 123 138 32
3 32 138 31
3 53 54 124
3 124 54 139
3 124 139 125
3 125 139 140
3 125 140 126
3 126 140 141
3 126 141 127
3 127 141 142
3 127 142 128
3 128 142 143
3 128 143 129
3 129 143 144
3 129 144 130
3 130 144 145
3 130 145 131
3 131 145 146
3 131 146 132
3 132 146 147
3 132 147 133
3 133 147 148
3 133 148 134
3 134 148 149
3 134 149 135
3 135 149 150
3 135 150 136
3 136 150 151
3 136 151 137
3 137 151 152
3 137 152 138
3 138 152 153
3 138 153 31
3 31 153 30
3 54 55 139
3 139 55 154
3 139 154 140
3 140 154 155
3 140 155 141
3 141 155 156
3 141 156 142
3 142 156 157
3 142 157 143
3 143 157 158
3 143 158 144
3 144 158 159
3 144 159 145
3 145 159 160
3 145 160 146
3 146 160 161
3 146 161 147
3 147 161 162
3 147 162 148
3 148 162 163
3 148 163 149
3 149 163 164
3 149 164 150
3 150 164 165
3 150 165 151
3 151 165 166
3 151 166 152
3 152 166 167
3 152 167 153
3 153 167 168
3 153 168 30
3 30 168 29
3 55 56 154
3 154 56 169
3 154 169 155
3 155 169 170
3 155 170 156
3 156 170 171
3 156 171 157
3 157 171 172
3 157 172 158
3 158 172 173
3 158 173 159
3 159 173 174
3 159 174 160
3 160 174 175
3 160 175 161
3 161 175 176
3 161 176 162
3 162 176 177
3 162 177 163
3 163 177 178
3 163 178 164
3 164 178 179
3 164 179 165
3 165 179 180
3 165 180 166
3 166 180 181
3 166 181 167
3 167 181 182
3 167 182 168
3 168 182 183
3 168 183 29
3 29 183 28
3 56 5 169
3 169 5 64
3 169 64 170
3 170 64 65
3 170 65 171
3 171 65 66
3 171 66 172
3 172 66 67
3 172 67 173
3 173 67 68
3 173 68 174
3 174 68 69
3 174 69 175
3 175 69 70
3 175 70 176
3 176 70 71
3 176 71 177
3 177 71 72
3 177 72 178
3 178 72 73
3 178 73 179
3 179 73 74
3 179 74 180
3 180 74 75
3 180 75 181
3 181 75 76
3 181 76 182
3 182 76 77
3 182 77 183
3 183 77 78
3 183 78 28
3 28 78 2
3 5 57 184
3 184 64 5
3 64 184 185
3 185 65 64
3 65 185 186
3 186 66 65
3 66 186 187
3 187 67 66
3 67 187 188
3 188 68 67
3 68 188 189
3 189 69 68
3 69 189 190
3 190 70 69
3 70 190 191
3 191 71 70
3 71 191 192
3 192 72 71
3 72 192 193
3 193 73 72
3 73 193 194
3 194 74 73
3 74 194 195
3 195 75 74
3 75 195 196
3 196 76 75
3 76 196 197
3 197 77 76
3 77 197 198
3 198 78 77
3 78 198 27
3 27 2 78
3 57 58 199
3 199 184 57
3 184 199 200
3 200 185 184
3 185 200 201
3 201 186 185
3 186 201 202
3 202 187 186
3 187 202 203
3 203 188 187
3 188 203 204
3 204 189 188
3 189 204 205
3 205 190 189
3 190 205 206
3 206 191 190
3 191 206 207
3 207 192 191
3 192 207 208
3 208 193 192
3 193 208 209
3 209 194 193
3 194 209 210
3 210 195 194
3 195 210 211
3 211 196 195
3 196 211 212
3 212 197 196
3 197 212 213
3 213 198 197
3 198 213 26
3 26 27 198
3 58 59 214
3 214 199 58
3 199 214 215
3 215 200 199
3 200 215 216
3 216 201 200
3 201 216 217
3 217 202 201
3 202 217 218
3 218 203 202
3 203 218 219
3 219 204 203
3 204 219 220
3 220 205 204
3 205 220 221
3 221 206 205
3 206 221 222
3 222 207 206
3 207 222 223
3 223 208 207
3 208 223 224
3 224 209 208
3 209 224 225
3 225 210 209
3 210 225 226
3 226 211 210
3 211 226 227
3 227 212 211
3 212 227 228
3 228 213 212
3 213 228 25
3 25 26 213
3 59 60 229
3 229 214 59
3 214 229 230
3 230 215 214
3 215 230 231
3 231 216 215
3 216 231 232
3 232 217 216
3 217 232 233
3 233 218 217
3 218 233 234
3 234 219 218
3 219 234 235
3 235 220 219
3 220 235 236
3 236 221 220
3 221 236 237
3 237 222 221
3 222 237 238
3 238 223 222
3 223 238 239
3 239 224 223
3 224 239 240
3 240 225 224
3 225 240 241
3 241 226 225
3 226 241 242
3 242 227 226
3 227 242 243
3 243 228 227
3 228 243 24
3 24 25 228
3 60 61 244
3 244 229 60
3 229 244 245
3 245 230 229
3 230 245 246
3 246 231 230
3 231 246 247
3 247 232 231
3 232 247 248
3 248 233 232
3 233 248 249
3 249 234 233
3 234 249 250
3 250 235 234
3 235 250 251
3 251 236 235
3 236 251 252
3 252 237 236
3 237 252 253
3 253 238 237
3 238 253 254
3 254 239 238
3 239 254 255
3 255 240 239
3 240 255 256
3 256 241 240
3 241 256 257
3 257 242 241
3 242 257 258
3 258 243 242
3 243 258 23
3 23 24 243
3 61 62 259
3 259 244 61
3 244 259 260
3 260 245 244
3 245 260 261
3 261 246 245
3 246 261 262
3 262 247 246
3 247 262 263
3 263 248 247
3 248 263 264
3 264 249 248
3 249 264 265
3 265 250 249
3 250 265 266
3 266 251 250
3 251 266 267
3 267 252 251
3 252 267 268
3 268 253 252
3 253 268 269
3 269 254 253
3 254 269 270
3 270 255 254
3 255 270 271
3 271 256 255
3 256 271 272
3 272 257 256
3 257 272 273
3 273 258 257
3 258 273 22
3 22 23 258
3 62 63 274
3 274 259 62
3 259 274 275
3 275 260 259
3 260 275 276
3 276 261 260
3 261 276 277
3 277 262 261
3 262 277 278
3 278 263 262
3 263 278 279
3 279 264 263
3 264 279 280
3 280 265 264
3 265 280 281
3 281 266 265
3 266 281 282
3 282 267 266
3 267 282 283
3 283 268 267
3 268 283 284
3 284 269 268
3 269 284 285
3 285 270 269
3 270 285 286
3 286 271 270
3 271 286 287
3 287 272 271
3 272 287 288
3 288 273 272
3 273 288 21
3 21 22 273
3 63 0 6
3 6 274 63
3 274 6 7
3 7 275 274
3 275 7 8
3 8 276 275
3 276 8 9
3 9 277 276
3 277 9 10
3 10 278 277
3 278 10 11
3 11 279 278
3 279 11 12
3 12 280 279
3 280 12 13
3 13 281 280
3 281 13 14
3 14 282 281
3 282 14 15
3 15 283 282
3 283 15 16
3 16 284 283
3 284 16 17
3 17 285 284
3 285 17 18
3 18 286 285
3 286 18 19
3 19 287 286
3 287 19 20
3 20 288 287
3 288 20 1
3 1 21 288
POINT_DATA 289
SCALARS P float
LOOKUP_TABLE default
-462.799570
456.349771
499.133505
543.612837
1475.825762
535.827965
-317.357592
-233.770566
-22.591848
14.364529
154.245887
183.208454
264.172580
293.838567
341.594754
364.603866
394.829754
410.368163
429.566831
440.179335
451.961910
455.596825
463.246060
466.934712
474.616872
482.141246
488.316211
499.053159
500.913554
510.558060
517.142234
524.793018
532.727604
537.373696
542.832667
547.631510
561.319601
569.711775
591.235770
604.012594
636.695523
654.664894
708.552092
727.191182
822.800954
829.731250
996.878034
999.573358
1257.026431
1292.539267
1485.666396
1457.893043
1422.618858
1329.847040
1129.014798
1030.807982
741.079302
333.033584
144.173825
-59.590035
-188.778227
-354.471475
-400.720764
-445.627853
486.199475
474.532065
503.440423
508.207343
497.975232
501.430832
498.406544
501.043474
498.888710
500.004921
499.461957
499.656226
499.921730
499.213832
499.944385
1202.416913
1242.924035
950.337171
983.860690
811.308851
802.629734
723.607453
691.416318
657.882047
626.558584
607.947474
586.208359
572.511842
559.544104
547.964852
1112.929571
1239.074268
859.324281
967.179206
774.417448
775.145661
709.322424
669.176463
640.108111
613.685984
589.926701
577.356101
558.953838
552.450478
540.717340
1022.972858
1185.733846
850.648173
904.184383
770.327656
728.996033
695.356762
647.515970
631.907006
600.547357
586.832877
569.118615
556.806211
547.511236
536.861067
916.677235
1075.420722
752.093086
823.854803
721.543413
681.332098
654.368730
619.348045
596.437874
581.992516
563.154422
554.548891
542.365710
536.615629
528.763180
822.437828
933.069220
745.079787
722.232358
672.584180
636.533038
612.169331
588.087745
573.490912
556.420586
547.326167
538.401918
529.669717
526.544432
519.751522
701.894521
766.302442
647.603221
637.874182
615.324000
584.556303
567.557553
557.767901
543.766871
537.695454
529.141608
524.637586
519.032748
516.337743
512.155938
624.125493
633.783469
583.762923
563.833386
539.811330
546.352424
529.729703
523.352218
519.584093
514.461418
511.093531
509.634062
506.976489
505.232227
505.737643
362.740534
404.916308
419.630626
424.843327
452.340349
453.931453
468.916427
474.734633
479.828883
484.701733
488.504747
489.646356
492.537341
494.039050
493.707353
227.595963
249.958650
332.593919
357.515520
393.624469
414.863475
429.976765
442.803535
454.069649
462.123386
469.178047
474.613835
479.872569
482.711810
487.227421
82.292229
147.331330
248.560991
281.252319
326.468571
358.843691
388.977660
410.324524
426.711027
442.040730
452.375883
460.729534
469.700075
472.909303
479.579226
-4.096728
-5.952874
186.470510
186.445065
284.029525
312.954392
352.985081
378.178230
403.740779
418.761860
435.840112
445.873251
456.615350
463.370701
470.298659
-111.652024
-84.067034
108.981986
135.350821
222.186122
268.786049
308.366750
346.129001
370.477808
396.139434
412.386089
429.385077
441.676994
451.771186
461.821666
-177.256902
-185.966884
73.115191
55.036721
199.836837
226.942255
288.735389
327.663794
361.204614
386.124563
410.421509
424.514844
440.831518
449.237338
458.505404
-240.675463
-186.950180
23.934146
52.796251
176.846289
211.795472
275.081993
310.093619
343.417202
371.208821
391.349053
411.319155
425.399119
438.699637
449.997511
