# vtk DataFile Version 2.0
cantilever_tri3_mix
ASCII
DATASET POLYDATA
POINTS 1089 float
1.000000 0.000000 0.000000
5.000000 0.000000 0.000000
5.000000 5.000000 0.000000
0.000000 5.000000 0.000000
0.000000 1.000000 0.000000
0.707107 0.707107 0.000000
1.056028 0.000000 0.000000
1.114696 0.000000 0.000000
1.176128 0.000000 0.000000
1.240455 0.000000 0.000000
1.307813 0.000000 0.000000
1.378345 0.000000 0.000000
1.452201 0.000000 0.000000
1.529537 0.000000 0.000000
1.610516 0.000000 0.000000
1.695312 0.000000 0.000000
1.784103 0.000000 0.000000
1.877078 0.000000 0.000000
1.974434 0.000000 0.000000
2.076378 0.000000 0.000000
2.183125 0.000000 0.000000
2.294902 0.000000 0.000000
2.411946 0.000000 0.000000
2.534506 0.000000 0.000000
2.662840 0.000000 0.000000
2.797221 0.000000 0.000000
2.937935 0.000000 0.000000
3.085279 0.000000 0.000000
3.239566 0.000000 0.000000
3.401123 0.000000 0.000000
3.570293 0.000000 0.000000
3.747434 0.000000 0.000000
3.932922 0.000000 0.000000
4.127150 0.000000 0.000000
4.330531 0.000000 0.000000
4.543495 0.000000 0.000000
4.766493 0.000000 0.000000
5.000000 0.216340 0.000000
5.000000 0.442874 0.000000
5.000000 0.680082 0.000000
5.000000 0.928468 0.000000
5.000000 1.188558 0.000000
5.000000 1.460903 0.000000
5.000000 1.746081 0.000000
5.000000 2.044697 0.000000
5.000000 2.357384 0.000000
5.000000 2.684805 0.000000
5.000000 3.027654 0.000000
5.000000 3.386658 0.000000
5.000000 3.762579 0.000000
5.000000 4.156213 0.000000
5.000000 4.568395 0.000000
4.568395 5.000000 0.000000
4.156213 5.000000 0.000000
3.762579 5.000000 0.000000
3.386658 5.000000 0.000000
3.027654 5.000000 0.000000
2.684805 5.000000 0.000000
2.357384 5.000000 0.000000
2.044697 5.000000 0.000000
1.746081 5.000000 0.000000
1.460903 5.000000 0.000000
1.188558 5.000000 0.000000
0.928468 5.000000 0.000000
0.680082 5.000000 0.000000
0.442874 5.000000 0.000000
0.216340 5.000000 0.000000
0.000000 4.766493 0.000000
0.000000 4.543495 0.000000
0.000000 4.330531 0.000000
0.000000 4.127150 0.000000
0.000000 3.932922 0.000000
0.000000 3.747434 0.000000
0.000000 3.570293 0.000000
0.000000 3.401123 0.000000
0.000000 3.239566 0.000000
0.000000 3.085279 0.000000
0.000000 2.937935 0.000000
0.000000 2.797221 0.000000
0.000000 2.662840 0.000000
0.000000 2.534506 0.000000
0.000000 2.411946 0.000000
0.000000 2.294902 0.000000
0.000000 2.183125 0.000000
0.000000 2.076378 0.000000
0.000000 1.974434 0.000000
0.000000 1.877078 0.000000
0.000000 1.784103 0.000000
0.000000 1.695312 0.000000
0.000000 1.610516 0.000000
0.000000 1.529537 0.000000
0.000000 1.452201 0.000000
0.000000 1.378345 0.000000
0.000000 1.307813 0.000000
0.000000 1.240455 0.000000
0.000000 1.176128 0.000000
0.000000 1.114696 0.000000
0.000000 1.056028 0.000000
0.049068 0.998795 0.000000
0.098017 0.995185 0.000000
0.146730 0.989177 0.000000
0.195090 0.980785 0.000000
0.242980 0.970031 0.000000
0.290285 0.956940 0.000000
0.336890 0.941544 0.000000
0.382683 0.923880 0.000000
0.427555 0.903989 0.000000
0.471397 0.881921 0.000000
0.514103 0.857729 0.000000
0.555570 0.831470 0.000000
0.595699 0.803208 0.000000
0.634393 0.773010 0.000000
0.671559 0.740951 0.000000
0.740951 0.671559 0.000000
0.773010 0.634393 0.000000
0.803208 0.595699 0.000000
0.831470 0.555570 0.000000
0.857729 0.514103 0.000000
0.881921 0.471397 0.000000
0.903989 0.427555 0.000000
0.923880 0.382683 0.000000
0.941544 0.336890 0.000000
0.956940 0.290285 0.000000
0.970031 0.242980 0.000000
0.980785 0.195090 0.000000
0.989177 0.146730 0.000000
0.995185 0.098017 0.000000
0.998795 0.049068 0.000000
0.767237 0.767237 0.000000
0.830201 0.830201 0.000000
0.896131 0.896131 0.000000
0.965169 0.965169 0.000000
1.037459 1.037459 0.000000
1.113156 1.113156 0.000000
1.192419 1.192419 0.000000
1.275418 1.275418 0.000000
1.362327 1.362327 0.000000
1.453332 1.453332 0.000000
1.548624 1.548624 0.000000
1.648407 1.648407 0.000000
1.752892 1.752892 0.000000
1.862300 1.862300 0.000000
1.976864 1.976864 0.000000
2.096826 2.096826 0.000000
2.222440 2.222440 0.000000
2.353974 2.353974 0.000000
2.491705 2.491705 0.000000
2.635927 2.635927 0.000000
2.786944 2.786944 0.000000
2.945077 2.945077 0.000000
3.110661 3.110661 0.000000
3.284048 3.284048 0.000000
3.465605 3.465605 0.000000
3.655717 3.655717 0.000000
3.854787 3.854787 0.000000
4.063238 4.063238 0.000000
4.281510 4.281510 0.000000
4.510068 4.510068 0.000000
4.749395 4.749395 0.000000
0.051411 1.054840 0.000000
0.053864 1.113526 0.000000
0.056433 1.174976 0.000000
0.059123 1.239323 0.000000
0.061940 1.306701 0.000000
0.064889 1.377255 0.000000
0.067978 1.451132 0.000000
0.071212 1.528491 0.000000
0.074598 1.609496 0.000000
0.078144 1.694317 0.000000
0.081857 1.783135 0.000000
0.085745 1.876138 0.000000
0.089817 1.973523 0.000000
0.094080 2.075497 0.000000
0.098544 2.182277 0.000000
0.103218 2.294087 0.000000
0.108113 2.411167 0.000000
0.113238 2.533763 0.000000
0.118604 2.662136 0.000000
0.124224 2.796558 0.000000
0.130108 2.937314 0.000000
0.136270 3.084703 0.000000
0.142722 3.239036 0.000000
0.149478 3.400642 0.000000
0.156552 3.569862 0.000000
0.163960 3.747057 0.000000
0.171717 3.932601 0.000000
0.179839 4.126888 0.000000
0.188344 4.330329 0.000000
0.197250 4.543357 0.000000
0.206575 4.766423 0.000000
0.102848 1.051280 0.000000
0.107906 1.110018 0.000000
0.113202 1.171525 0.000000
0.118748 1.235929 0.000000
0.124555 1.303368 0.000000
0.130636 1.373985 0.000000
0.137003 1.447930 0.000000
0.143671 1.525359 0.000000
0.150652 1.606436 0.000000
0.157963 1.691334 0.000000
0.165618 1.780232 0.000000
0.173634 1.873319 0.000000
0.182027 1.970792 0.000000
0.190816 2.072858 0.000000
0.200019 2.179734 0.000000
0.209656 2.291646 0.000000
0.219747 2.408831 0.000000
0.230313 2.531538 0.000000
0.241378 2.660026 0.000000
0.252963 2.794570 0.000000
0.265095 2.935453 0.000000
0.277798 3.082974 0.000000
0.291100 3.237447 0.000000
0.305028 3.399198 0.000000
0.319613 3.568572 0.000000
0.334885 3.745926 0.000000
0.350877 3.931638 0.000000
0.367622 4.126100 0.000000
0.385156 4.329725 0.000000
0.403517 4.542945 0.000000
0.422742 4.766212 0.000000
0.154201 1.045356 0.000000
0.162024 1.104183 0.000000
0.170215 1.165781 0.000000
0.178792 1.230282 0.000000
0.187774 1.297823 0.000000
0.197178 1.368545 0.000000
0.207026 1.442601 0.000000
0.217338 1.520146 0.000000
0.228135 1.601345 0.000000
0.239442 1.686370 0.000000
0.251281 1.775401 0.000000
0.263678 1.868628 0.000000
0.276660 1.966247 0.000000
0.290252 2.068467 0.000000
0.304486 2.175503 0.000000
0.319390 2.287582 0.000000
0.334996 2.404943 0.000000
0.351338 2.527834 0.000000
0.368450 2.656516 0.000000
0.386368 2.791261 0.000000
0.405131 2.932355 0.000000
0.424777 3.080098 0.000000
0.445350 3.234803 0.000000
0.466891 3.396797 0.000000
0.489448 3.566424 0.000000
0.513068 3.744045 0.000000
0.537800 3.930035 0.000000
0.563698 4.124789 0.000000
0.590817 4.328719 0.000000
0.619213 4.542259 0.000000
0.648947 4.765862 0.000000
0.205363 1.037082 0.000000
0.216119 1.096032 0.000000
0.227382 1.157759 0.000000
0.239176 1.222395 0.000000
0.251526 1.290077 0.000000
0.264458 1.360948 0.000000
0.277999 1.435158 0.000000
0.292178 1.512866 0.000000
0.307025 1.594234 0.000000
0.322572 1.679437 0.000000
0.338851 1.768655 0.000000
0.355898 1.862077 0.000000
0.373747 1.959900 0.000000
0.392438 2.062334 0.000000
0.412010 2.169594 0.000000
0.432503 2.281908 0.000000
0.453963 2.399514 0.000000
0.476433 2.522662 0.000000
0.499963 2.651613 0.000000
0.524601 2.786640 0.000000
0.550400 2.928030 0.000000
0.577415 3.076081 0.000000
0.605702 3.231110 0.000000
0.635323 3.393443 0.000000
0.666339 3.563425 0.000000
0.698817 3.741417 0.000000
0.732825 3.927796 0.000000
0.768436 4.122958 0.000000
0.805724 4.327315 0.000000
0.844770 4.541302 0.000000
0.885656 4.765372 0.000000
0.256225 1.026479 0.000000
0.270094 1.085586 0.000000
0.284616 1.147479 0.000000
0.299822 1.212288 0.000000
0.315745 1.280151 0.000000
0.332419 1.351211 0.000000
0.349878 1.425620 0.000000
0.368160 1.503535 0.000000
0.387303 1.585122 0.000000
0.407348 1.670553 0.000000
0.428338 1.760009 0.000000
0.450316 1.853681 0.000000
0.473331 1.951766 0.000000
0.497430 2.054473 0.000000
0.522664 2.162020 0.000000
0.549088 2.274635 0.000000
0.576756 2.392556 0.000000
0.605729 2.516034 0.000000
0.636066 2.645329 0.000000
0.667833 2.780718 0.000000
0.701097 2.922486 0.000000
0.735928 3.070934 0.000000
0.772401 3.226377 0.000000
0.810592 3.389144 0.000000
0.850583 3.559581 0.000000
0.892458 3.738050 0.000000
0.936306 3.924927 0.000000
0.982221 4.120611 0.000000
1.030299 4.325515 0.000000
1.080642 4.540074 0.000000
1.133358 4.764744 0.000000
0.306681 1.013571 0.000000
0.323851 1.072871 0.000000
0.341829 1.134964 0.000000
0.360655 1.199984 0.000000
0.380368 1.268067 0.000000
0.401009 1.339358 0.000000
0.422623 1.414009 0.000000
0.445256 1.492177 0.000000
0.468955 1.574029 0.000000
0.493771 1.659737 0.000000
0.519756 1.749484 0.000000
0.546966 1.843460 0.000000
0.575457 1.941864 0.000000
0.605292 2.044905 0.000000
0.636532 2.152802 0.000000
0.669244 2.265782 0.000000
0.703497 2.384086 0.000000
0.739365 2.507965 0.000000
0.776922 2.637681 0.000000
0.816250 2.773509 0.000000
0.857430 2.915737 0.000000
0.900551 3.064667 0.000000
0.945704 3.220615 0.000000
0.992984 3.383911 0.000000
1.042493 3.554902 0.000000
1.094334 3.733950 0.000000
1.148618 3.921435 0.000000
1.205459 4.117754 0.000000
1.264980 4.323324 0.000000
1.327304 4.538580 0.000000
1.392566 4.763980 0.000000
0.356628 0.998391 0.000000
0.377297 1.057916 0.000000
0.398939 1.120246 0.000000
0.421602 1.185513 0.000000
0.445332 1.253856 0.000000
0.470180 1.325418 0.000000
0.496199 1.400353 0.000000
0.523444 1.478819 0.000000
0.551973 1.560982 0.000000
0.581847 1.647017 0.000000
0.613128 1.737106 0.000000
0.645883 1.831440 0.000000
0.680181 1.930219 0.000000
0.716095 2.033652 0.000000
0.753702 2.141959 0.000000
0.793081 2.255370 0.000000
0.834315 2.374124 0.000000
0.877493 2.498475 0.000000
0.922705 2.628685 0.000000
0.970047 2.765030 0.000000
1.019620 2.907800 0.000000
1.071529 3.057297 0.000000
[...]
POINT_DATA 1089
VECTORS U float
0.000751 0.000000 0.000000
0.001400 0.000000 0.000000
0.001277 -0.001222 0.000000
0.000000 -0.001295 0.000000
-0.000000 -0.000250 0.000000
0.000531 -0.000177 0.000000
0.000763 -0.000000 0.000000
0.000772 -0.000000 0.000000
0.000779 -0.000000 0.000000
0.000785 -0.000000 0.000000
0.000790 0.000000 0.000000
0.000794 -0.000000 0.000000
0.000799 0.000000 0.000000
0.000804 -0.000000 0.000000
0.000809 0.000000 0.000000
0.000816 -0.000000 0.000000
0.000823 0.000000 0.000000
0.000832 -0.000000 0.000000
0.000842 0.000000 0.000000
0.000853 -0.000000 0.000000
0.000866 0.000000 0.000000
0.000881 -0.000000 0.000000
0.000897 -0.000000 0.000000
0.000915 -0.000000 0.000000
0.000935 -0.000000 0.000000
0.000957 -0.000000 0.000000
0.000981 -0.000000 0.000000
0.001007 -0.000000 0.000000
0.001035 -0.000000 0.000000
0.001066 -0.000000 0.000000
0.001098 -0.000000 0.000000
0.001134 -0.000000 0.000000
0.001171 -0.000000 0.000000
0.001211 -0.000000 0.000000
0.001254 -0.000000 0.000000
0.001300 0.000000 0.000000
0.001348 -0.000000 0.000000
0.001399 -0.000048 0.000000
0.001397 -0.000098 0.000000
0.001394 -0.000151 0.000000
0.001389 -0.000207 0.000000
0.001382 -0.000266 0.000000
0.001374 -0.000330 0.000000
0.001365 -0.000397 0.000000
0.001355 -0.000469 0.000000
0.001344 -0.000545 0.000000
0.001333 -0.000627 0.000000
0.001322 -0.000714 0.000000
0.001312 -0.000805 0.000000
0.001302 -0.000902 0.000000
0.001293 -0.001004 0.000000
0.001284 -0.001110 0.000000
0.001165 -0.001225 0.000000
0.001057 -0.001228 0.000000
0.000954 -0.001233 0.000000
0.000855 -0.001238 0.000000
0.000761 -0.001244 0.000000
0.000671 -0.001251 0.000000
0.000586 -0.001258 0.000000
0.000506 -0.001264 0.000000
0.000430 -0.001271 0.000000
0.000358 -0.001277 0.000000
0.000290 -0.001283 0.000000
0.000226 -0.001287 0.000000
0.000165 -0.001291 0.000000
0.000107 -0.001293 0.000000
0.000052 -0.001294 0.000000
-0.000000 -0.001239 0.000000
0.000000 -0.001185 0.000000
-0.000000 -0.001135 0.000000
0.000000 -0.001086 0.000000
-0.000000 -0.001040 0.000000
0.000000 -0.000997 0.000000
-0.000000 -0.000955 0.000000
0.000000 -0.000915 0.000000
-0.000000 -0.000878 0.000000
0.000000 -0.000842 0.000000
-0.000000 -0.000808 0.000000
0.000000 -0.000776 0.000000
-0.000000 -0.000745 0.000000
0.000000 -0.000716 0.000000
-0.000000 -0.000688 0.000000
0.000000 -0.000661 0.000000
-0.000000 -0.000635 0.000000
0.000000 -0.000611 0.000000
-0.000000 -0.000587 0.000000
0.000000 -0.000564 0.000000
-0.000000 -0.000541 0.000000
0.000000 -0.000519 0.000000
-0.000000 -0.000498 0.000000
0.000000 -0.000476 0.000000
-0.000000 -0.000453 0.000000
0.000000 -0.000430 0.000000
-0.000000 -0.000406 0.000000
0.000000 -0.000381 0.000000
0.000000 -0.000353 0.000000
0.000000 -0.000323 0.000000
0.000000 -0.000289 0.000000
0.000037 -0.000250 0.000000
0.000074 -0.000249 0.000000
0.000110 -0.000248 0.000000
0.000147 -0.000246 0.000000
0.000183 -0.000243 0.000000
0.000218 -0.000240 0.000000
0.000253 -0.000236 0.000000
0.000288 -0.000231 0.000000
0.000321 -0.000226 0.000000
0.000354 -0.000221 0.000000
0.000386 -0.000215 0.000000
0.000417 -0.000208 0.000000
0.000447 -0.000201 0.000000
0.000476 -0.000193 0.000000
0.000504 -0.000185 0.000000
0.000556 -0.000168 0.000000
0.000580 -0.000159 0.000000
0.000603 -0.000149 0.000000
0.000624 -0.000139 0.000000
0.000644 -0.000129 0.000000
0.000662 -0.000118 0.000000
0.000679 -0.000107 0.000000
0.000694 -0.000096 0.000000
0.000707 -0.000084 0.000000
0.000719 -0.000073 0.000000
0.000728 -0.000061 0.000000
0.000737 -0.000049 0.000000
0.000743 -0.000037 0.000000
0.000747 -0.000025 0.000000
0.000750 -0.000012 0.000000
0.000494 -0.000167 0.000000
0.000468 -0.000166 0.000000
0.000451 -0.000171 0.000000
0.000441 -0.000181 0.000000
0.000437 -0.000195 0.000000
0.000437 -0.000211 0.000000
0.000441 -0.000230 0.000000
0.000448 -0.000251 0.000000
0.000458 -0.000273 0.000000
0.000470 -0.000297 0.000000
0.000485 -0.000323 0.000000
0.000503 -0.000349 0.000000
0.000522 -0.000378 0.000000
0.000543 -0.000407 0.000000
0.000566 -0.000438 0.000000
0.000591 -0.000470 0.000000
0.000618 -0.000504 0.000000
0.000647 -0.000539 0.000000
0.000678 -0.000575 0.000000
0.000711 -0.000613 0.000000
0.000746 -0.000653 0.000000
0.000782 -0.000695 0.000000
0.000821 -0.000738 0.000000
0.000862 -0.000783 0.000000
0.000905 -0.000830 0.000000
0.000951 -0.000879 0.000000
0.000999 -0.000930 0.000000
0.001049 -0.000983 0.000000
0.001102 -0.001039 0.000000
0.001158 -0.001098 0.000000
0.001216 -0.001159 0.000000
0.000032 -0.000288 0.000000
0.000029 -0.000322 0.000000
0.000026 -0.000352 0.000000
0.000024 -0.000380 0.000000
0.000022 -0.000405 0.000000
0.000021 -0.000429 0.000000
0.000020 -0.000452 0.000000
0.000020 -0.000474 0.000000
0.000020 -0.000496 0.000000
0.000020 -0.000518 0.000000
0.000020 -0.000540 0.000000
0.000021 -0.000563 0.000000
0.000021 -0.000586 0.000000
0.000022 -0.000610 0.000000
0.000023 -0.000634 0.000000
0.000024 -0.000660 0.000000
0.000025 -0.000687 0.000000
0.000026 -0.000715 0.000000
0.000027 -0.000744 0.000000
0.000029 -0.000775 0.000000
0.000030 -0.000807 0.000000
0.000032 -0.000841 0.000000
0.000033 -0.000877 0.000000
0.000035 -0.000915 0.000000
0.000037 -0.000954 0.000000
0.000039 -0.000996 0.000000
0.000041 -0.001040 0.000000
0.000043 -0.001086 0.000000
0.000045 -0.001134 0.000000
0.000047 -0.001185 0.000000
0.000050 -0.001238 0.000000
0.000065 -0.000287 0.000000
0.000058 -0.000320 0.000000
0.000052 -0.000350 0.000000
0.000048 -0.000377 0.000000
0.000045 -0.000402 0.000000
0.000043 -0.000426 0.000000
0.000041 -0.000449 0.000000
0.000041 -0.000471 0.000000
0.000040 -0.000493 0.000000
0.000040 -0.000515 0.000000
0.000041 -0.000537 0.000000
0.000042 -0.000559 0.000000
0.000043 -0.000582 0.000000
0.000045 -0.000606 0.000000
0.000046 -0.000631 0.000000
0.000048 -0.000657 0.000000
0.000051 -0.000683 0.000000
0.000053 -0.000712 0.000000
0.000056 -0.000741 0.000000
0.000059 -0.000772 0.000000
0.000062 -0.000805 0.000000
0.000065 -0.000839 0.000000
0.000068 -0.000875 0.000000
0.000072 -0.000912 0.000000
0.000075 -0.000952 0.000000
0.000079 -0.000994 0.000000
0.000083 -0.001038 0.000000
0.000088 -0.001084 0.000000
0.000092 -0.001132 0.000000
0.000097 -0.001183 0.000000
0.000102 -0.001237 0.000000
0.000097 -0.000284 0.000000
0.000087 -0.000316 0.000000
0.000079 -0.000345 0.000000
0.000073 -0.000372 0.000000
0.000068 -0.000397 0.000000
0.000065 -0.000420 0.000000
0.000063 -0.000443 0.000000
0.000062 -0.000465 0.000000
0.000061 -0.000487 0.000000
0.000062 -0.000509 0.000000
0.000063 -0.000531 0.000000
0.000064 -0.000553 0.000000
0.000066 -0.000577 0.000000
0.000069 -0.000600 0.000000
0.000071 -0.000625 0.000000
0.000074 -0.000651 0.000000
0.000078 -0.000678 0.000000
0.000082 -0.000707 0.000000
0.000086 -0.000736 0.000000
0.000090 -0.000767 0.000000
0.000095 -0.000800 0.000000
0.000100 -0.000834 0.000000
0.000105 -0.000870 0.000000
0.000110 -0.000908 0.000000
0.000116 -0.000948 0.000000
0.000122 -0.000990 0.000000
0.000128 -0.001034 0.000000
0.000135 -0.001081 0.000000
0.000142 -0.001129 0.000000
0.000149 -0.001180 0.000000
0.000157 -0.001234 0.000000
0.000130 -0.000280 0.000000
0.000116 -0.000311 0.000000
0.000106 -0.000339 0.000000
0.000098 -0.000365 0.000000
0.000092 -0.000389 0.000000
0.000088 -0.000413 0.000000
0.000085 -0.000435 0.000000
0.000084 -0.000457 0.000000
0.000084 -0.000478 0.000000
0.000084 -0.000500 0.000000
0.000086 -0.000522 0.000000
0.000088 -0.000545 0.000000
0.000090 -0.000568 0.000000
0.000094 -0.000592 0.000000
0.000097 -0.000617 0.000000
0.000102 -0.000644 0.000000
0.000106 -0.000671 0.000000
0.000112 -0.000699 0.000000
0.000117 -0.000729 0.000000
0.000123 -0.000761 0.000000
0.000129 -0.000794 0.000000
0.000136 -0.000828 0.000000
0.000143 -0.000865 0.000000
0.000151 -0.000903 0.000000
0.000159 -0.000943 0.000000
0.000167 -0.000985 0.000000
0.000176 -0.001029 0.000000
0.000185 -0.001076 0.000000
0.000194 -0.001125 0.000000
0.000204 -0.001176 0.000000
0.000215 -0.001230 0.000000
0.000162 -0.000276 0.000000
0.000146 -0.000305 0.000000
0.000133 -0.000332 0.000000
0.000124 -0.000357 0.000000
0.000117 -0.000380 0.000000
0.000112 -0.000403 0.000000
0.000109 -0.000425 0.000000
0.000107 -0.000446 0.000000
0.000107 -0.000468 0.000000
0.000108 -0.000490 0.000000
0.000110 -0.000512 0.000000
0.000112 -0.000534 0.000000
0.000116 -0.000558 0.000000
0.000120 -0.000582 0.000000
0.000125 -0.000607 0.000000
0.000131 -0.000634 0.000000
0.000137 -0.000661 0.000000
0.000143 -0.000690 0.000000
0.000151 -0.000720 0.000000
0.000158 -0.000752 0.000000
0.000166 -0.000785 0.000000
0.000175 -0.000820 0.000000
0.000184 -0.000857 0.000000
0.000194 -0.000895 0.000000
0.000204 -0.000936 0.000000
0.000214 -0.000979 0.000000
0.000226 -0.001023 0.000000
0.000237 -0.001070 0.000000
0.000250 -0.001119 0.000000
0.000262 -0.001171 0.000000
0.000276 -0.001226 0.000000
0.000194 -0.000270 0.000000
0.000175 -0.000297 0.000000
0.000161 -0.000323 0.000000
0.000150 -0.000346 0.000000
0.000142 -0.000369 0.000000
0.000136 -0.000391 0.000000
0.000133 -0.000412 0.000000
0.000131 -0.000433 0.000000
0.000131 -0.000455 0.000000
0.000133 -0.000477 0.000000
0.000135 -0.000499 0.000000
0.000139 -0.000522 0.000000
0.000143 -0.000545 0.000000
0.000149 -0.000570 0.000000
0.000155 -0.000595 0.000000
0.000162 -0.000622 0.000000
0.000169 -0.000650 0.000000
0.000177 -0.000679 0.000000
0.000186 -0.000709 0.000000
0.000196 -0.000742 0.000000
0.000206 -0.000775 0.000000
0.000216 -0.000811 0.000000
0.000228 -0.000848 0.000000
0.000239 -0.000887 0.000000
0.000252 -0.000928 0.000000
0.000265 -0.000971 0.000000
0.000279 -0.001016 0.000000
0.000293 -0.001063 0.000000
0.000308 -0.001113 0.000000
0.000324 -0.001165 0.000000
0.000341 -0.001220 0.000000
0.000226 -0.000263 0.000000
0.000205 -0.000288 0.000000
0.000188 -0.000312 0.000000
0.000176 -0.000334 0.000000
0.000168 -0.000356 0.000000
0.000162 -0.000377 0.000000
0.000158 -0.000398 0.000000
0.000157 -0.000419 0.000000
0.000157 -0.000440 0.000000
0.000159 -0.000462 0.000000
0.000163 -0.000484 0.000000
0.000167 -0.000507 0.000000
0.000173 -0.000531 0.000000
0.000179 -0.000555 0.000000
0.000187 -0.000581 0.000000
0.000195 -0.000608 0.000000
0.000204 -0.000637 0.000000
0.000214 -0.000666 0.000000
0.000224 -0.000697 0.000000
0.000236 -0.000730 0.000000
0.000248 -0.000764 0.000000
0.000260 -0.000800 0.000000
0.000274 -0.000837 0.000000
0.000288 -0.000877 0.000000
0.000303 -0.000918 0.000000
0.000318 -0.000962 0.000000
0.000335 -0.001007 0.000000
0.000352 -0.001055 0.000000
0.000370 -0.001105 0.000000
0.000389 -0.001158 0.000000
0.000409 -0.001213 0.000000
0.000257 -0.000256 0.000000
0.000234 -0.000278 0.000000
0.000217 -0.000300 0.000000
0.000204 -0.000321 0.000000
0.000194 -0.000341 0.000000
0.000188 -0.000361 0.000000
0.000185 -0.000382 0.000000
0.000184 -0.000402 0.000000
0.000185 -0.000423 0.000000
0.000187 -0.000445 0.000000
0.000192 -0.000467 0.000000
0.000197 -0.000490 0.000000
0.000204 -0.000515 0.000000
0.000212 -0.000540 0.000000
0.000220 -0.000566 0.000000
0.000230 -0.000593 0.000000
0.000241 -0.000622 0.000000
0.000252 -0.000652 0.000000
0.000265 -0.000683 0.000000
0.000278 -0.000717 0.000000
0.000292 -0.000751 0.000000
0.000307 -0.000788 0.000000
0.000323 -0.000826 0.000000
0.000339 -0.000866 0.000000
0.000357 -0.000908 0.000000
0.000375 -0.000952 0.000000
0.000394 -0.000998 0.000000
0.000415 -0.001046 0.000000
0.000436 -0.001097 0.000000
0.000458 -0.001150 0.000000
0.000481 -0.001206 0.000000
0.000289 -0.000247 0.000000
0.000264 -0.000267 0.000000
0.000245 -0.000287 0.000000
0.000231 -0.000306 0.000000
0.000222 -0.000325 0.000000
0.000216 -0.000344 0.000000
0.000213 -0.000364 0.000000
0.000212 -0.000384 0.000000
0.000214 -0.000405 0.000000
0.000218 -0.000427 0.000000
0.000223 -0.000449 0.000000
0.000229 -0.000473 0.000000
0.000237 -0.000497 0.000000
0.000246 -0.000523 0.000000
0.000257 -0.000549 0.000000
0.000268 -0.000577 0.000000
0.000280 -0.000606 0.000000
0.000294 -0.000637 0.000000
0.000308 -0.000669 0.000000
0.000323 -0.000703 0.000000
0.000340 -0.000738 0.000000
0.000357 -0.000775 0.000000
0.000375 -0.000813 0.000000
0.000394 -0.000854 0.000000
0.000414 -0.000897 0.000000
0.000435 -0.000941 0.000000
0.000458 -0.000988 0.000000
0.000481 -0.001037 0.000000
0.000506 -0.001088 0.000000
0.000531 -0.001142 0.000000
0.000558 -0.001198 0.000000
0.000319 -0.000238 0.000000
0.000293 -0.000255 0.000000
0.000274 -0.000272 0.000000
0.000260 -0.000290 0.000000
0.000250 -0.000308 0.000000
0.000245 -0.000326 0.000000
0.000242 -0.000345 0.000000
0.000242 -0.000365 0.000000
0.000245 -0.000386 0.000000
0.000249 -0.000408 0.000000
0.000256 -0.000431 0.000000
0.000263 -0.000454 0.000000
0.000273 -0.000479 0.000000
0.000283 -0.000505 0.000000
0.000295 -0.000532 0.000000
0.000308 -0.000560 0.000000
0.000322 -0.000590 0.000000
0.000338 -0.000621 0.000000
0.000354 -0.000654 0.000000
0.000371 -0.000688 0.000000
0.000390 -0.000724 0.000000
0.000409 -0.000762 0.000000
0.000430 -0.000801 0.000000
0.000452 -0.000842 0.000000
0.000475 -0.000885 0.000000
0.000499 -0.000931 0.000000
0.000524 -0.000978 0.000000
0.000551 -0.001028 0.000000
0.000579 -0.001080 0.000000
0.000608 -0.001134 0.000000
0.000639 -0.001191 0.000000
0.000350 -0.000228 0.000000
0.000323 -0.000242 0.000000
0.000303 -0.000257 0.000000
0.000289 -0.000273 0.000000
0.000280 -0.000289 0.000000
0.000275 -0.000307 0.000000
0.000273 -0.000326 0.000000
0.000274 -0.000346 0.000000
0.000277 -0.000367 0.000000
0.000283 -0.000388 0.000000
0.000290 -0.000411 0.000000
0.000300 -0.000435 0.000000
0.000310 -0.000461 0.000000
0.000322 -0.000487 0.000000
0.000336 -0.000515 0.000000
0.000351 -0.000544 0.000000
0.000367 -0.000574 0.000000
0.000384 -0.000606 0.000000
0.000403 -0.000639 0.000000
0.000422 -0.000674 0.000000
0.000443 -0.000710 0.000000
0.000465 -0.000749 0.000000
0.000488 -0.000789 0.000000
0.000513 -0.000830 0.000000
0.000539 -0.000874 0.000000
0.000566 -0.000920 0.000000
0.000595 -0.000968 0.000000
0.000625 -0.001018 0.000000
0.000657 -0.001071 0.000000
0.000690 -0.001126 0.000000
0.000724 -0.001184 0.000000
0.000380 -0.000217 0.000000
0.000352 -0.000228 0.000000
0.000332 -0.000240 0.000000
0.000319 -0.000255 0.000000
0.000310 -0.000270 0.000000
0.000305 -0.000288 0.000000
0.000305 -0.000306 0.000000
0.000307 -0.000326 0.000000
0.000311 -0.000347 0.000000
0.000318 -0.000369 0.000000
0.000327 -0.000392 0.000000
0.000337 -0.000417 0.000000
0.000350 -0.000442 0.000000
0.000364 -0.000469 0.000000
0.000379 -0.000498 0.000000
0.000396 -0.000527 0.000000
0.000414 -0.000558 0.000000
0.000433 -0.000591 0.000000
0.000454 -0.000624 0.000000
0.000476 -0.000660 0.000000
0.000499 -0.000697 0.000000
0.000524 -0.000736 0.000000
0.000550 -0.000777 0.000000
0.000577 -0.000819 0.000000
0.000606 -0.000864 0.000000
0.000637 -0.000910 0.000000
0.000669 -0.000959 0.000000
0.000703 -0.001010 0.000000
0.000738 -0.001063 0.000000
0.000775 -0.001119 0.000000
0.000814 -0.001177 0.000000
0.000409 -0.000205 0.000000
0.000381 -0.000213 0.000000
0.000362 -0.000223 0.000000
0.000349 -0.000236 0.000000
0.000341 -0.000251 0.000000
0.000337 -0.000268 0.000000
0.000337 -0.000286 0.000000
0.000341 -0.000306 0.000000
0.000346 -0.000327 0.000000
0.000355 -0.000350 0.000000
0.000365 -0.000373 0.000000
0.000377 -0.000398 0.000000
0.000391 -0.000425 0.000000
0.000406 -0.000452 0.000000
0.000424 -0.000481 0.000000
0.000442 -0.000511 0.000000
0.000462 -0.000543 0.000000
0.000484 -0.000576 0.000000
0.000507 -0.000611 0.000000
0.000531 -0.000647 0.000000
0.000557 -0.000685 0.000000
0.000585 -0.000724 0.000000
0.000614 -0.000765 0.000000
0.000644 -0.000809 0.000000
0.000677 -0.000854 0.000000
0.000711 -0.000901 0.000000
0.000746 -0.000950 0.000000
0.000784 -0.001002 0.000000
0.000823 -0.001056 0.000000
0.000865 -0.001112 0.000000
0.000908 -0.001171 0.000000
0.000438 -0.000193 0.000000
0.000411 -0.000198 0.000000
0.000392 -0.000206 0.000000
0.000379 -0.000218 0.000000
0.000372 -0.000232 0.000000
0.000370 -0.000248 0.000000
0.000371 -0.000267 0.000000
0.000376 -0.000287 0.000000
0.000383 -0.000308 0.000000
0.000392 -0.000331 0.000000
0.000404 -0.000355 0.000000
0.000418 -0.000381 0.000000
0.000434 -0.000408 0.000000
0.000451 -0.000436 0.000000
0.000470 -0.000465 0.000000
0.000491 -0.000496 0.000000
0.000513 -0.000529 0.000000
0.000537 -0.000562 0.000000
0.000562 -0.000598 0.000000
0.000589 -0.000634 0.000000
0.000618 -0.000673 0.000000
0.000648 -0.000713 0.000000
0.000681 -0.000755 0.000000
0.000714 -0.000799 0.000000
0.000750 -0.000845 0.000000
0.000788 -0.000892 0.000000
0.000827 -0.000942 0.000000
0.000869 -0.000995 0.000000
0.000912 -0.001049 0.000000
0.000958 -0.001106 0.000000
0.001006 -0.001166 0.000000
0.000466 -0.000180 0.000000
0.000439 -0.000182 0.000000
0.000421 -0.000189 0.000000
0.000410 -0.000199 0.000000
0.000404 -0.000213 0.000000
0.000403 -0.000229 0.000000
0.000406 -0.000248 0.000000
0.000411 -0.000268 0.000000
0.000420 -0.000290 0.000000
0.000431 -0.000313 0.000000
0.000444 -0.000338 0.000000
0.000460 -0.000364 0.000000
0.000477 -0.000392 0.000000
0.000497 -0.000421 0.000000
0.000518 -0.000451 0.000000
0.000540 -0.000483 0.000000
0.000565 -0.000516 0.000000
0.000591 -0.000550 0.000000
0.000619 -0.000586 0.000000
0.000649 -0.000623 0.000000
0.000681 -0.000662 0.000000
0.000714 -0.000703 0.000000
0.000750 -0.000746 0.000000
0.000787 -0.000790 0.000000
0.000826 -0.000837 0.000000
0.000868 -0.000885 0.000000
0.000911 -0.000936 0.000000
0.000957 -0.000989 0.000000
0.001005 -0.001044 0.000000
0.001056 -0.001102 0.000000
0.001109 -0.001162 0.000000
0.000524 -0.000155 0.000000
0.000500 -0.000151 0.000000
0.000485 -0.000153 0.000000
0.000475 -0.000160 0.000000
0.000470 -0.000171 0.000000
0.000470 -0.000185 0.000000
0.000473 -0.000201 0.000000
0.000479 -0.000220 0.000000
0.000488 -0.000240 0.000000
0.000499 -0.000262 0.000000
0.000513 -0.000285 0.000000
0.000529 -0.000310 0.000000
0.000547 -0.000336 0.000000
0.000567 -0.000363 0.000000
0.000589 -0.000391 0.000000
0.000613 -0.000421 0.000000
0.000639 -0.000452 0.000000
0.000667 -0.000484 0.000000
0.000697 -0.000518 0.000000
0.000729 -0.000553 0.000000
0.000762 -0.000590 0.000000
0.000798 -0.000628 0.000000
0.000836 -0.000667 0.000000
0.000876 -0.000708 0.000000
0.000918 -0.000752 0.000000
0.000963 -0.000796 0.000000
0.001010 -0.000843 0.000000
0.001060 -0.000892 0.000000
0.001112 -0.000943 0.000000
0.001166 -0.000997 0.000000
0.001224 -0.001052 0.000000
0.000552 -0.000143 0.000000
0.000532 -0.000136 0.000000
0.000518 -0.000135 0.000000
0.000509 -0.000140 0.000000
0.000504 -0.000148 0.000000
0.000503 -0.000160 0.000000
0.000505 -0.000174 0.000000
0.000511 -0.000190 0.000000
0.000519 -0.000209 0.000000
0.000529 -0.000228 0.000000
0.000542 -0.000250 0.000000
0.000557 -0.000272 0.000000
0.000574 -0.000296 0.000000
0.000593 -0.000321 0.000000
0.000614 -0.000347 0.000000
0.000637 -0.000374 0.000000
0.000662 -0.000403 0.000000
0.000688 -0.000432 0.000000
0.000717 -0.000463 0.000000
0.000748 -0.000495 0.000000
0.000781 -0.000529 0.000000
0.000815 -0.000563 0.000000
0.000852 -0.000600 0.000000
0.000892 -0.000637 0.000000
0.000933 -0.000677 0.000000
0.000977 -0.000718 0.000000
0.001023 -0.000761 0.000000
0.001071 -0.000805 0.000000
0.001122 -0.000852 0.000000
0.001176 -0.000900 0.000000
0.001233 -0.000951 0.000000
0.000580 -0.000131 0.000000
0.000562 -0.000122 0.000000
0.000550 -0.000119 0.000000
0.000542 -0.000121 0.000000
0.000538 -0.000127 0.000000
0.000537 -0.000137 0.000000
0.000539 -0.000149 0.000000
0.000543 -0.000163 0.000000
0.000551 -0.000179 0.000000
0.000560 -0.000197 0.000000
0.000572 -0.000216 0.000000
0.000586 -0.000237 0.000000
0.000602 -0.000258 0.000000
0.000620 -0.000281 0.000000
0.000640 -0.000305 0.000000
0.000661 -0.000330 0.000000
0.000685 -0.000356 0.000000
0.000711 -0.000383 0.000000
0.000739 -0.000411 0.000000
0.000768 -0.000440 0.000000
0.000800 -0.000471 0.000000
0.000834 -0.000502 0.000000
0.000870 -0.000535 0.000000
0.000908 -0.000570 0.000000
0.000948 -0.000605 0.000000
0.000991 -0.000643 0.000000