# vtk DataFile Version 2.0
plate_with_hole_mix
ASCII
DATASET POLYDATA
POINTS 25 float
1.000000 0.000000 0.000000
5.000000 0.000000 0.000000
5.000000 5.000000 0.000000
0.000000 5.000000 0.000000
0.000000 1.000000 0.000000
0.707107 0.707107 0.000000
1.380844 0.000000 0.000000
2.028278 0.000000 0.000000
3.128916 0.000000 0.000000
5.000000 2.000000 0.000000
2.000000 5.000000 0.000000
0.000000 3.128916 0.000000
0.000000 2.028278 0.000000
0.000000 1.380844 0.000000
0.382683 0.923880 0.000000
0.923880 0.382683 0.000000
0.993300 0.993300 0.000000
1.565685 1.565685 0.000000
2.710457 2.710457 0.000000
0.488716 1.262076 0.000000
0.702570 1.871969 0.000000
1.133322 2.978706 0.000000
1.262076 0.488716 0.000000
1.871969 0.702570 0.000000
2.978706 1.133322 0.000000
POLYGONS 32 128
3 4 14 13
3 13 14 19
3 13 19 12
3 12 19 20
3 12 20 11
3 11 20 21
3 11 21 3
3 3 21 10
3 14 5 19
3 19 5 16
3 19 16 20
3 20 16 17
3 20 17 21
3 21 17 18
3 21 18 10
3 10 18 2
3 5 15 22
3 22 16 5
3 16 22 23
3 23 17 16
3 17 23 24
3 24 18 17
3 18 24 9
3 9 2 18
3 15 0 6
3 6 22 15
3 22 6 7
3 7 23 22
3 23 7 8
3 8 24 23
3 24 8 1
3 1 9 24
POINT_DATA 25
SCALARS P float 1
LOOKUP_TABLE default
-0.056328
0.558458
0.502600
0.674624
3.477824
1.334845
-0.677691
0.320939
0.252457
0.532370
0.484080
0.386284
1.556840
-1.151537
2.230591
-1.614670
-0.944889
0.962715
0.481295
1.797213
0.395472
0.535710
0.942167
0.428462
0.223077
