# vtk DataFile Version 2.0
cantilever_tri3_mix
ASCII
DATASET POLYDATA
POINTS 81 float
1.000000 0.000000 0.000000
5.000000 0.000000 0.000000
5.000000 5.000000 0.000000
0.000000 5.000000 0.000000
0.000000 1.000000 0.000000
0.707107 0.707107 0.000000
1.264390 0.000000 0.000000
1.575437 0.000000 0.000000
1.941375 0.000000 0.000000
2.371890 0.000000 0.000000
2.878378 0.000000 0.000000
3.474247 0.000000 0.000000
4.175268 0.000000 0.000000
5.000000 0.963598 0.000000
5.000000 2.097242 0.000000
5.000000 3.430942 0.000000
3.430942 5.000000 0.000000
2.097242 5.000000 0.000000
0.963598 5.000000 0.000000
0.000000 4.175268 0.000000
0.000000 3.474247 0.000000
0.000000 2.878378 0.000000
0.000000 2.371890 0.000000
0.000000 1.941375 0.000000
0.000000 1.575437 0.000000
0.000000 1.264390 0.000000
0.195090 0.980785 0.000000
0.382683 0.923880 0.000000
0.555570 0.831470 0.000000
0.831470 0.555570 0.000000
0.923880 0.382683 0.000000
0.980785 0.195090 0.000000
0.990856 0.990856 0.000000
1.324679 1.324679 0.000000
1.717412 1.717412 0.000000
2.179451 2.179451 0.000000
2.723026 2.723026 0.000000
3.362526 3.362526 0.000000
4.114879 4.114879 0.000000
0.245887 1.246445 0.000000
0.305647 1.558987 0.000000
0.375954 1.926682 0.000000
0.458667 2.359265 0.000000
0.555977 2.868187 0.000000
0.670460 3.466917 0.000000
0.805145 4.171307 0.000000
0.496012 1.193301 0.000000
0.629339 1.510267 0.000000
0.786194 1.883169 0.000000
0.970730 2.321877 0.000000
1.187831 2.838003 0.000000
1.443244 3.445211 0.000000
1.743730 4.159574 0.000000
0.745625 1.106999 0.000000
0.969219 1.431151 0.000000
1.232271 1.812507 0.000000
1.541744 2.261161 0.000000
1.905829 2.788989 0.000000
2.334165 3.409963 0.000000
2.838089 4.140520 0.000000
1.106999 0.745625 0.000000
1.431151 0.969219 0.000000
1.812507 1.232271 0.000000
2.261161 1.541744 0.000000
2.788989 1.905829 0.000000
3.409963 2.334165 0.000000
4.140520 2.838089 0.000000
1.193301 0.496012 0.000000
1.510267 0.629339 0.000000
1.883169 0.786194 0.000000
2.321877 0.970730 0.000000
2.838003 1.187831 0.000000
3.445211 1.443244 0.000000
4.159574 1.743730 0.000000
1.246445 0.245887 0.000000
1.558987 0.305647 0.000000
1.926682 0.375954 0.000000
2.359265 0.458667 0.000000
2.868187 0.555977 0.000000
3.466917 0.670460 0.000000
4.171307 0.805145 0.000000
POLYGONS 128 512
3 4 26 25
3 25 26 39
3 25 39 24
3 24 39 40
3 24 40 23
3 23 40 41
3 23 41 22
3 22 41 42
3 22 42 21
3 21 42 43
3 21 43 20
3 20 43 44
3 20 44 19
3 19 44 45
3 19 45 3
3 3 45 18
3 26 27 39
3 39 27 46
3 39 46 40
3 40 46 47
3 40 47 41
3 41 47 48
3 41 48 42
3 42 48 49
3 42 49 43
3 43 49 50
3 43 50 44
3 44 50 51
3 44 51 45
3 45 51 52
3 45 52 18
3 18 52 17
3 27 28 46
3 46 28 53
3 46 53 47
3 47 53 54
3 47 54 48
3 48 54 55
3 48 55 49
3 49 55 56
3 49 56 50
3 50 56 57
3 50 57 51
3 51 57 58
3 51 58 52
3 52 58 59
3 52 59 17
3 17 59 16
3 28 5 53
3 53 5 32
3 53 32 54
3 54 32 33
3 54 33 55
3 55 33 34
3 55 34 56
3 56 34 35
3 56 35 57
3 57 35 36
3 57 36 58
3 58 36 37
3 58 37 59
3 59 37 38
3 59 38 16
3 16 38 2
3 5 29 60
3 60 32 5
3 32 60 61
3 61 33 32
3 33 61 62
3 62 34 33
3 34 62 63
3 63 35 34
3 35 63 64
3 64 36 35
3 36 64 65
3 65 37 36
3 37 65 66
3 66 38 37
3 38 66 15
3 15 2 38
3 29 30 67
3 67 60 29
3 60 67 68
3 68 61 60
3 61 68 69
3 69 62 61
3 62 69 70
3 70 63 62
3 63 70 71
3 71 64 63
3 64 71 72
3 72 65 64
3 65 72 73
3 73 66 65
3 66 73 14
3 14 15 66
3 30 31 74
3 74 67 30
3 67 74 75
3 75 68 67
3 68 75 76
3 76 69 68
3 69 76 77
3 77 70 69
3 70 77 78
3 78 71 70
3 71 78 79
3 79 72 71
3 72 79 80
3 80 73 72
3 73 80 13
3 13 14 73
3 31 0 6
3 6 74 31
3 74 6 7
3 7 75 74
3 75 7 8
3 8 76 75
3 76 8 9
3 9 77 76
3 77 9 10
3 10 78 77
3 78 10 11
3 11 79 78
3 79 11 12
3 12 80 79
3 80 12 1
3 1 13 80
POINT_DATA 81
VECTORS U float
0.000693 0.000005 0.000000
0.001371 0.000002 0.000000
0.001274 -0.001228 0.000000
0.000046 -0.001274 0.000000
0.000003 -0.000189 0.000000
0.000449 -0.000143 0.000000
0.000731 -0.000001 0.000000
0.000768 0.000001 0.000000
0.000813 -0.000001 0.000000
0.000864 0.000001 0.000000
0.000932 -0.000001 0.000000
0.001041 -0.000002 0.000000
0.001195 0.000001 0.000000
0.001365 -0.000222 0.000000
0.001339 -0.000495 0.000000
0.001302 -0.000826 0.000000
0.000874 -0.001246 0.000000
0.000524 -0.001255 0.000000
0.000223 -0.001279 0.000000
0.000004 -0.001088 0.000000
0.000002 -0.000913 0.000000
0.000002 -0.000762 0.000000
-0.000000 -0.000659 0.000000
-0.000002 -0.000583 0.000000
0.000000 -0.000495 0.000000
-0.000001 -0.000368 0.000000
0.000135 -0.000240 0.000000
0.000239 -0.000238 0.000000
0.000342 -0.000200 0.000000
0.000554 -0.000088 0.000000
0.000645 -0.000047 0.000000
0.000698 -0.000021 0.000000
0.000423 -0.000192 0.000000
0.000438 -0.000265 0.000000
0.000500 -0.000367 0.000000
0.000597 -0.000489 0.000000
0.000722 -0.000634 0.000000
0.000877 -0.000807 0.000000
0.001059 -0.001005 0.000000
0.000107 -0.000362 0.000000
0.000089 -0.000456 0.000000
0.000086 -0.000545 0.000000
0.000105 -0.000648 0.000000
0.000135 -0.000771 0.000000
0.000161 -0.000911 0.000000
0.000198 -0.001076 0.000000
0.000202 -0.000332 0.000000
0.000185 -0.000410 0.000000
0.000196 -0.000498 0.000000
0.000238 -0.000603 0.000000
0.000296 -0.000727 0.000000
0.000353 -0.000870 0.000000
0.000430 -0.001043 0.000000
0.000307 -0.000267 0.000000
0.000301 -0.000337 0.000000
0.000336 -0.000431 0.000000
0.000402 -0.000544 0.000000
0.000490 -0.000676 0.000000
0.000591 -0.000832 0.000000
0.000714 -0.001024 0.000000
0.000543 -0.000111 0.000000
0.000558 -0.000152 0.000000
0.000604 -0.000220 0.000000
0.000681 -0.000306 0.000000
0.000788 -0.000409 0.000000
0.000925 -0.000530 0.000000
0.001099 -0.000671 0.000000
0.000648 -0.000055 0.000000
0.000664 -0.000074 0.000000
0.000703 -0.000114 0.000000
0.000768 -0.000168 0.000000
0.000861 -0.000231 0.000000
0.000984 -0.000309 0.000000
0.001142 -0.000390 0.000000
0.000716 -0.000025 0.000000
0.000737 -0.000030 0.000000
0.000771 -0.000047 0.000000
0.000830 -0.000070 0.000000
0.000917 -0.000097 0.000000
0.001033 -0.000136 0.000000
0.001179 -0.000172 0.000000
CELL_DATA 128
SCALARS P float 1
LOOKUP_TABLE default
-137005.447361
25723.011441
103722.528584
17092.746832
-127668.256187
26200.009592
29058.981409
11143.120626
33364.986907
-19165.736483
34308.758221
-8995.495849
17822.570327
-13485.772616
491688.525460
-11619.066956
22521.353177
-12178.423931
64139.883848
-5842.781933
-4891.154609
11729.062246
6716.189323
5871.858194
1939.646563
6105.656467
-1925.131332
1516.515445
6695.260878
-2320.043117
-12055.374639
15474.847377
58996.828324
-37040.818001
26796.728143
-296914.848242
-9067.982939
-403.392676
2589.743047
243.781172
639.816357
12029.250030
6423.470772
17545.290816
-762.456225
-3386.104822
19999.186946
23294.235562
3841.780804
-5074.103852
26450.866226
7134.212766
26935.605975
9502.677822
-164195.054621
17767.353129
-8739.720997
6096.647832
1436.284178
349.150749
-14569.320587
4776.798947
-25809.279166
23660.616542
6023.066917
-8531.282109
14555.011683
4427.098012
35850.345051
10908.677685
-368219.253065
11529.046763
-54904.345751
14149.601809
-16055.082564
17653.230441
-17363.952650
-5121.382511
32210.904808
-17485.674201
63279.335215
-10012.822741
-1978.950701
-176379.984102
-4811.686523
-39110.866915
-3174.929628
-24177.858387
-8168.799174
-29616.576738
1808.083415
-12120.878676
-5268.176542
-30433.289924
-9827.397973
10643.218532
17299.311168
-26249.908194
52659.546307
-4501.349936
-6865.003812
15362.751903
18266.315158
10424.226905
2883.090139
4623.125824
2806.283046
-3077.536652
-2643.731458
46.408412
2105.491429
9796.952721
-10630.778263
7718.453360
36066.348367
10176.108524
18130.942429
13637.252350
8494.264844
-31181.248204
-18040.939856
8265.508828
-12371.785381
40174.145084
23725.233938
8718.792204
24186.260442
-16063.692649
