# vtk DataFile Version 2.0
plate_with_hole_mix
ASCII
DATASET POLYDATA
POINTS 1089 float
1.000000 0.000000 0.000000
5.000000 0.000000 0.000000
5.000000 5.000000 0.000000
0.000000 5.000000 0.000000
0.000000 1.000000 0.000000
0.707107 0.707107 0.000000
1.053122 0.000000 0.000000
1.108899 0.000000 0.000000
1.167466 0.000000 0.000000
1.228961 0.000000 0.000000
1.293531 0.000000 0.000000
1.361329 0.000000 0.000000
1.432517 0.000000 0.000000
1.507265 0.000000 0.000000
1.585750 0.000000 0.000000
1.668159 0.000000 0.000000
1.754688 0.000000 0.000000
1.845544 0.000000 0.000000
1.940943 0.000000 0.000000
2.041112 0.000000 0.000000
2.146289 0.000000 0.000000
2.256726 0.000000 0.000000
2.372684 0.000000 0.000000
2.494439 0.000000 0.000000
2.622283 0.000000 0.000000
2.756519 0.000000 0.000000
2.897467 0.000000 0.000000
3.045462 0.000000 0.000000
3.200856 0.000000 0.000000
3.364021 0.000000 0.000000
3.535343 0.000000 0.000000
3.715232 0.000000 0.000000
3.904116 0.000000 0.000000
4.102443 0.000000 0.000000
4.310687 0.000000 0.000000
4.529343 0.000000 0.000000
4.758932 0.000000 0.000000
5.000000 0.257995 0.000000
5.000000 0.522440 0.000000
5.000000 0.793496 0.000000
5.000000 1.071328 0.000000
5.000000 1.356106 0.000000
5.000000 1.648004 0.000000
5.000000 1.947199 0.000000
5.000000 2.253874 0.000000
5.000000 2.568216 0.000000
5.000000 2.890416 0.000000
5.000000 3.220671 0.000000
5.000000 3.559183 0.000000
5.000000 3.906157 0.000000
5.000000 4.261806 0.000000
5.000000 4.626346 0.000000
4.626346 5.000000 0.000000
4.261806 5.000000 0.000000
3.906157 5.000000 0.000000
3.559183 5.000000 0.000000
3.220671 5.000000 0.000000
2.890416 5.000000 0.000000
2.568216 5.000000 0.000000
2.253874 5.000000 0.000000
1.947199 5.000000 0.000000
1.648004 5.000000 0.000000
1.356106 5.000000 0.000000
1.071328 5.000000 0.000000
0.793496 5.000000 0.000000
0.522440 5.000000 0.000000
0.257995 5.000000 0.000000
0.000000 4.758932 0.000000
0.000000 4.529343 0.000000
0.000000 4.310687 0.000000
0.000000 4.102443 0.000000
0.000000 3.904116 0.000000
0.000000 3.715232 0.000000
0.000000 3.535343 0.000000
0.000000 3.364021 0.000000
0.000000 3.200856 0.000000
0.000000 3.045462 0.000000
0.000000 2.897467 0.000000
0.000000 2.756519 0.000000
0.000000 2.622283 0.000000
0.000000 2.494439 0.000000
0.000000 2.372684 0.000000
0.000000 2.256726 0.000000
0.000000 2.146289 0.000000
0.000000 2.041112 0.000000
0.000000 1.940943 0.000000
0.000000 1.845544 0.000000
0.000000 1.754688 0.000000
0.000000 1.668159 0.000000
0.000000 1.585750 0.000000
0.000000 1.507265 0.000000
0.000000 1.432517 0.000000
0.000000 1.361329 0.000000
0.000000 1.293531 0.000000
0.000000 1.228961 0.000000
0.000000 1.167466 0.000000
0.000000 1.108899 0.000000
0.000000 1.053122 0.000000
0.049068 0.998795 0.000000
0.098017 0.995185 0.000000
0.146730 0.989177 0.000000
0.195090 0.980785 0.000000
0.242980 0.970031 0.000000
0.290285 0.956940 0.000000
0.336890 0.941544 0.000000
0.382683 0.923880 0.000000
0.427555 0.903989 0.000000
0.471397 0.881921 0.000000
0.514103 0.857729 0.000000
0.555570 0.831470 0.000000
0.595699 0.803208 0.000000
0.634393 0.773010 0.000000
0.671559 0.740951 0.000000
0.740951 0.671559 0.000000
0.773010 0.634393 0.000000
0.803208 0.595699 0.000000
0.831470 0.555570 0.000000
0.857729 0.514103 0.000000
0.881921 0.471397 0.000000
0.903989 0.427555 0.000000
0.923880 0.382683 0.000000
0.941544 0.336890 0.000000
0.956940 0.290285 0.000000
0.970031 0.242980 0.000000
0.980785 0.195090 0.000000
0.989177 0.146730 0.000000
0.995185 0.098017 0.000000
0.998795 0.049068 0.000000
0.746056 0.746056 0.000000
0.787731 0.787731 0.000000
0.832324 0.832324 0.000000
0.880038 0.880038 0.000000
0.931093 0.931093 0.000000
0.985721 0.985721 0.000000
1.044173 1.044173 0.000000
1.106716 1.106716 0.000000
1.173638 1.173638 0.000000
1.245244 1.245244 0.000000
1.321863 1.321863 0.000000
1.403845 1.403845 0.000000
1.491566 1.491566 0.000000
1.585427 1.585427 0.000000
1.685859 1.685859 0.000000
1.793320 1.793320 0.000000
1.908304 1.908304 0.000000
2.031337 2.031337 0.000000
2.162982 2.162982 0.000000
2.303843 2.303843 0.000000
2.454563 2.454563 0.000000
2.615834 2.615834 0.000000
2.788394 2.788394 0.000000
2.973033 2.973033 0.000000
3.170597 3.170597 0.000000
3.381991 3.381991 0.000000
3.608181 3.608181 0.000000
3.850206 3.850206 0.000000
4.109172 4.109172 0.000000
4.386265 4.386265 0.000000
4.682756 4.682756 0.000000
0.050932 1.051011 0.000000
0.052928 1.105877 0.000000
0.055066 1.163528 0.000000
0.057356 1.224108 0.000000
0.059809 1.287766 0.000000
0.062436 1.354658 0.000000
0.065249 1.424951 0.000000
0.068262 1.498819 0.000000
0.071489 1.576443 0.000000
0.074944 1.658018 0.000000
0.078645 1.743744 0.000000
0.082608 1.833834 0.000000
0.086851 1.928513 0.000000
0.091395 2.028015 0.000000
0.096261 2.132589 0.000000
0.101472 2.242493 0.000000
0.107051 2.358003 0.000000
0.113026 2.479405 0.000000
0.119423 2.607004 0.000000
0.126273 2.741116 0.000000
0.133607 2.882078 0.000000
0.141460 3.030242 0.000000
0.149868 3.185979 0.000000
0.158871 3.349680 0.000000
0.168510 3.521753 0.000000
0.178830 3.702632 0.000000
0.189880 3.892771 0.000000
0.201710 4.092648 0.000000
0.214375 4.302766 0.000000
0.227935 4.523655 0.000000
0.242453 4.755871 0.000000
0.101808 1.046500 0.000000
0.105867 1.100462 0.000000
0.110215 1.157209 0.000000
0.114871 1.216885 0.000000
0.119858 1.279643 0.000000
0.125198 1.345645 0.000000
0.130917 1.415061 0.000000
0.137042 1.488068 0.000000
0.143600 1.564855 0.000000
0.150623 1.645620 0.000000
0.158144 1.730572 0.000000
0.166198 1.819930 0.000000
0.174821 1.913925 0.000000
0.184055 2.012802 0.000000
0.193943 2.116817 0.000000
0.204531 2.226241 0.000000
0.215867 2.341359 0.000000
0.228005 2.462471 0.000000
0.241002 2.589892 0.000000
0.254918 2.723958 0.000000
0.269817 2.865019 0.000000
0.285769 3.013444 0.000000
0.302849 3.169625 0.000000
0.321136 3.333973 0.000000
0.340714 3.506920 0.000000
0.361675 3.688923 0.000000
0.384116 3.880465 0.000000
0.408141 4.082051 0.000000
0.433863 4.294219 0.000000
0.461399 4.517531 0.000000
0.490880 4.752582 0.000000
0.152513 1.039598 0.000000
0.158705 1.092664 0.000000
0.165337 1.148513 0.000000
0.172439 1.207296 0.000000
0.180044 1.269168 0.000000
0.188188 1.334295 0.000000
0.196909 1.402850 0.000000
0.206248 1.475017 0.000000
0.216249 1.550989 0.000000
0.226957 1.630970 0.000000
0.238423 1.715176 0.000000
0.250701 1.803833 0.000000
0.263847 1.897181 0.000000
0.277923 1.995473 0.000000
0.292995 2.098976 0.000000
0.309133 2.207969 0.000000
0.326411 2.322751 0.000000
0.344911 2.443633 0.000000
0.364718 2.570948 0.000000
0.385925 2.705042 0.000000
0.408630 2.846285 0.000000
0.432939 2.995065 0.000000
0.458964 3.151791 0.000000
0.486827 3.316897 0.000000
0.516657 3.490839 0.000000
0.548592 3.674101 0.000000
0.582781 3.867192 0.000000
0.619383 4.070649 0.000000
0.658567 4.285042 0.000000
0.700515 4.510969 0.000000
0.745422 4.749065 0.000000
0.202933 1.030318 0.000000
0.211331 1.082494 0.000000
0.220324 1.137456 0.000000
0.229954 1.195355 0.000000
0.240266 1.256353 0.000000
0.251309 1.320618 0.000000
0.263133 1.388328 0.000000
0.275793 1.459673 0.000000
0.289350 1.534851 0.000000
0.303865 1.614074 0.000000
0.319407 1.697561 0.000000
0.336048 1.785550 0.000000
0.353866 1.878286 0.000000
0.372943 1.976033 0.000000
0.393368 2.079067 0.000000
0.415237 2.187680 0.000000
0.438650 2.302181 0.000000
0.463717 2.422896 0.000000
0.490555 2.550171 0.000000
0.519287 2.684369 0.000000
0.550048 2.825878 0.000000
0.582980 2.975103 0.000000
0.618237 3.132475 0.000000
0.655981 3.298451 0.000000
0.696388 3.473511 0.000000
0.739645 3.658165 0.000000
0.785954 3.852952 0.000000
0.835528 4.058441 0.000000
0.888598 4.275234 0.000000
0.945409 4.503969 0.000000
1.006225 4.745320 0.000000
0.252954 1.018680 0.000000
0.263633 1.069972 0.000000
0.275069 1.124053 0.000000
0.287314 1.181079 0.000000
0.300425 1.241213 0.000000
0.314463 1.304629 0.000000
0.329495 1.371511 0.000000
0.345589 1.442052 0.000000
0.362821 1.516457 0.000000
0.381271 1.594944 0.000000
0.401024 1.677741 0.000000
0.422174 1.765091 0.000000
0.444817 1.857250 0.000000
0.469060 1.954491 0.000000
0.495015 2.057100 0.000000
0.522802 2.165381 0.000000
0.552551 2.279656 0.000000
0.584400 2.400264 0.000000
0.618496 2.527566 0.000000
0.654998 2.661944 0.000000
0.694075 2.803800 0.000000
0.735909 2.953561 0.000000
0.780693 3.111681 0.000000
0.828636 3.278637 0.000000
0.879958 3.454936 0.000000
0.934899 3.641116 0.000000
0.993713 3.837745 0.000000
1.056672 4.045425 0.000000
1.124067 4.264795 0.000000
1.196212 4.496529 0.000000
1.273439 4.741345 0.000000
0.302463 1.004709 0.000000
0.315503 1.055122 0.000000
0.329465 1.108329 0.000000
0.344414 1.164489 0.000000
0.360420 1.223770 0.000000
0.377557 1.286350 0.000000
0.395905 1.352418 0.000000
0.415549 1.422172 0.000000
0.436580 1.495824 0.000000
0.459097 1.573597 0.000000
0.483203 1.655730 0.000000
0.509012 1.742471 0.000000
0.536642 1.834087 0.000000
0.566222 1.930860 0.000000
0.597889 2.033086 0.000000
0.631790 2.141083 0.000000
0.668083 2.255185 0.000000
0.706936 2.375746 0.000000
0.748528 2.503143 0.000000
0.793054 2.637772 0.000000
0.840718 2.780058 0.000000
0.891742 2.930446 0.000000
0.946363 3.089411 0.000000
1.004833 3.257457 0.000000
1.067423 3.435117 0.000000
1.134422 3.622955 0.000000
1.206142 3.821572 0.000000
1.282913 4.031604 0.000000
1.365091 4.253725 0.000000
1.453056 4.488651 0.000000
1.547215 4.737141 0.000000
0.351350 0.988436 0.000000
0.366833 1.037975 0.000000
0.383409 1.090313 0.000000
0.401155 1.145615 0.000000
0.420155 1.204052 0.000000
0.440497 1.265807 0.000000
0.462274 1.331073 0.000000
0.485588 1.400056 0.000000
0.510548 1.472974 0.000000
0.537269 1.550057 0.000000
0.565875 1.631549 0.000000
0.596498 1.717710 0.000000
0.629282 1.808815 0.000000
0.664377 1.905156 0.000000
0.701947 2.007042 0.000000
0.742165 2.114802 0.000000
0.785219 2.228783 0.000000
0.831306 2.349356 0.000000
0.880642 2.476911 0.000000
0.933453 2.611866 0.000000
0.989986 2.754661 0.000000
1.050500 2.905765 0.000000
[...]
POINT_DATA 1089
SCALARS P float 1
LOOKUP_TABLE default
-0.456142
0.403982
0.422242
0.489027
1.319298
1.251827
-0.277686
-0.296901
-0.150039
-0.149402
-0.068938
-0.033430
0.016753
0.047874
0.087609
0.119640
0.148509
0.175547
0.202064
0.218231
0.245258
0.255290
0.280311
0.286905
0.309456
0.309947
0.333982
0.332587
0.350841
0.350581
0.363743
0.371030
0.368583
0.392678
0.375359
0.400108
0.390488
0.365733
0.433794
0.350289
0.495947
0.306950
0.509037
0.205803
0.875602
-0.275750
1.359433
-0.616211
1.432716
-0.356996
0.818909
0.304091
0.312704
0.770280
-0.205990
1.265350
-0.392041
1.190288
-0.210325
1.020993
-0.040516
0.841071
0.206532
0.631144
0.349440
0.541312
0.432711
0.445285
0.499891
0.455666
0.505999
0.472912
0.506250
0.495107
0.511366
0.516149
0.527169
0.533337
0.550967
0.554641
0.575520
0.584053
0.606594
0.615393
0.642764
0.658740
0.686517
0.708951
0.740523
0.765343
0.814511
0.831894
0.905661
0.908239
1.029298
0.987200
1.176133
1.107153
1.262258
1.262966
1.301074
1.080324
1.384018
0.827935
1.399002
0.766780
1.042800
0.910931
0.895776
0.616774
0.808780
0.706941
0.057238
-0.911887
1.733701
-1.161630
0.843779
-0.237594
-0.150038
-0.215578
0.375162
-0.984346
0.465005
-0.838263
-0.088080
-0.482657
-0.442358
-0.400886
-0.887628
0.933965
1.460165
2.807655
2.274022
2.478039
1.409544
1.156669
0.611762
-0.058824
1.451798
1.543883
0.267155
0.331222
1.077012
0.817978
-0.276806
0.232095
0.463735
-0.233205
-1.937862
-2.188276
-0.520764
1.438698
0.624166
-0.844245
1.079210
5.591008
6.981201
3.508928
1.089810
1.362548
1.138351
1.110837
1.047498
0.927869
0.955424
0.834918
0.853576
0.763487
0.776416
0.710180
0.692769
0.670167
0.631127
0.640755
0.589040
0.598403
0.556582
0.577788
0.531945
0.548856
0.522268
0.529422
0.499434
0.536170
0.459759
0.547193
0.422257
0.542307
0.417984
0.516919
1.039042
1.148697
1.039236
0.974555
1.024748
0.862213
0.881170
0.812338
0.777712
0.749714
0.679042
0.747066
0.610023
0.717758
0.552546
0.664829
0.550121
0.629198
0.510872
0.589375
0.508111
0.541057
0.483773
0.543407
0.410743
0.587908
0.350728
0.629845
0.339738
0.603871
0.364645
1.253903
1.274331
0.807556
1.230982
0.593940
1.056086
0.701715
0.853941
0.727641
0.744259
0.770450
0.576002
0.753021
0.506257
0.726243
0.517213
0.619239
0.501542
0.601481
0.517973
0.525186
0.564076
0.502792
0.525973
0.583757
0.410426
0.658877
0.285573
0.671225
0.284164
0.629203
1.253156
0.761719
1.537613
0.591414
1.504401
0.698269
1.011926
0.826033
0.764761
0.822150
0.522665
0.937159
0.437181
0.907590
0.397847
0.761892
0.501171
0.698428
0.464537
0.593628
0.550135
0.428825
0.584984
0.389091
0.467468
0.497362
0.343612
0.673913
0.270556
0.691528
0.259690
0.896841
1.663771
0.060656
1.673192
-0.112757
1.195496
0.493845
0.783639
0.704175
0.607395
0.959206
0.281356
0.975092
0.209369
0.934794
0.341714
0.700465
0.339798
0.723580
0.395386
0.561939
0.602560
0.421151
0.696523
0.478781
0.575638
0.569414
0.293708
0.681859
0.213276
0.741138
1.539211
0.149386
2.341167
-0.069433
2.313788
0.421057
1.250759
0.758409
0.843232
0.827721
0.329339
1.174843
0.190782
1.174273
0.157574
0.881627
0.436091
0.824061
0.284769
0.779548
0.379385
0.482824
0.543393
0.240966
0.526429
0.267135
0.508787
0.578132
0.321347
0.697073
0.141451
0.645277
1.897602
-0.609475
1.990547
-0.916143
1.259136
0.180675
0.828614
0.432764
0.664358
1.019680
0.028200
1.143515
-0.108356
1.134735
0.230731
0.613239
0.296814
0.791658
0.193382
0.757893
0.437450
0.577720
0.736126
0.528522
0.756521
0.314751
0.496722
0.399079
0.479723
0.609609
1.217813
0.322329
2.166354
0.171747
2.502323
0.666001
1.281894
0.662006
1.151756
0.525309
0.337756
1.294448
0.013905
1.487450
-0.177573
1.003384
0.553088
0.700121
0.331994
0.834975
0.211499
0.596270
0.285082
0.227474
0.240741
0.309413
0.532271
0.638346
0.403426
0.292779
0.656622
1.215371
0.835450
0.314595
0.592013
-0.427909
0.141341
0.499751
0.529877
0.055140
1.019393
0.732924
-0.001712
1.085871
-0.466312
1.533427
-0.124887
0.514847
0.403668
0.614404
0.210001
0.804483
0.422102
0.747139
0.954234
0.690360
0.750288
0.174088
0.199552
0.942759
0.311196
-0.089008
0.436687
1.183035
0.837496
1.811837
1.457900
2.171282
0.360267
1.324452
1.134988
0.113251
0.651956
1.056471
0.300894
1.563857
-0.627804
1.478507
0.464990
0.599011
0.464762
0.764096
0.072409
0.615283
-0.126730
-0.064918
0.043900
0.247017
1.245442
0.122685
-0.032995
1.099458
1.413477
0.976486
0.807057
0.449495
-0.466567
-0.261890
-1.131997
1.109246
-0.486267
0.269548
1.114062
0.383576
0.167861
0.434645
-0.264619
1.712215
-0.741476
0.659188
0.431509
0.373024
0.397497
0.804482
0.540096
1.329654
1.201626
1.160036
-0.093527
-0.108237
1.353098
0.515754
-1.019479
-0.973054
0.953661
0.139661
1.389114
1.825510
2.099152
2.354217
0.380210
1.930873
0.702079
0.093838
0.727543
0.995934
0.951587
0.932431
-0.529636
2.023316
0.080363
0.673197
0.531769
0.495386
0.058640
0.113420
-0.725675
-0.879437
0.356526
1.434450
0.294813
-0.720530
1.478521
2.853473
2.445644
0.237644
1.608959
-0.526741
-0.531755
-1.541615
-0.781122
0.038272
-0.613159
0.356447
1.000511
0.289030
-0.211955
-0.107760
0.500746
1.052785
-1.071776
1.015362
0.256722
0.427304
0.560219
1.048011
1.062260
2.580524
1.598843
-0.324208
-0.333835
1.525965
0.941945
-2.076536
-3.232043
-1.970568
0.705518
-0.202469
1.756194
2.048012
2.902742
1.756554
1.699283
1.293392
0.858954
-0.130526
0.900297
1.498748
0.954824
0.227336
0.379420
1.895434
-0.288754
0.693530
0.405495
0.103422
-0.161267
-1.207665
-2.155159
0.196096
1.727726
0.258215
-0.849091
1.283982
4.988593
5.146196
2.701866
1.029372
0.723597
-0.621821
-1.524278
-1.706568
-1.078673
-0.864171
-0.142687
0.042189
1.178118
-0.330677
-0.671370
0.202104
0.785842
0.016227
-0.558495
1.304870
0.216086
0.762372
0.651398
1.831797
3.049662
2.565767
-0.372507
-0.391545
1.355606
1.253343
-2.599183
-5.923897
-4.237110
-1.019535
2.673299
-1.031428
0.048576
-2.318919
-0.753894
-2.121671
-0.335215
-0.374965
0.110592
0.675550
0.065046
-0.960063
0.384512
0.653509
0.004579
0.177555
0.415546
1.516047
0.080030
0.579715
2.165205
2.937925
1.815843
0.680813
-0.426185
0.889425
1.202215
-1.710169
-5.038886
-4.203214
-1.153390
-2.682288
2.436541
-0.164083
3.374647
0.701788
2.979353
1.069402
0.885719
0.815162
0.256579
0.408983
1.488173
0.797536
0.058520
0.682672
0.442706
0.716082
-0.476409
0.009933
0.981824
-0.655948
-1.667992
-0.965179
-0.226704
0.473515
0.892717
-0.133284
0.522825
3.262869
4.527237
2.962874
2.973455
-1.753165
0.770533
-2.466598
0.029445
-1.749844
-0.822736
0.254601
-0.207982
0.287169
0.549018
-0.521523
-0.061356
0.512143
0.285505
0.498795
-0.058919
1.072954
0.888556
0.271389
0.379629
2.146772
1.642755
1.061950
0.650978
0.448981
0.072656
0.751746
-0.314406
-1.999296
-2.154963
-1.358117
0.822267
0.521122
1.937531
0.890465
1.360438
1.828484
0.065935
0.711452
0.624703
-0.030606
1.035874
0.794884
0.201936
0.681094
-0.142667
1.079307
-0.167000
-0.061366
0.435542
0.395853
-0.189406
-0.967166
-0.125097
0.309766
0.094761
0.463885
0.870221
0.279829
1.182760
2.398015
0.408763
0.554113
-0.870657
-0.756748
-0.805692
-0.122914
-1.528252
0.561498
0.050941
-0.159411
0.639404
-0.115134
-0.216752
0.636304
-0.154448
0.966645
-0.112708
0.446742
1.060523
0.221090
0.437355
0.794828
0.843423
1.572247
0.129769
0.614970
0.842128
-0.017401
0.011538
0.816496
-0.679607
0.434963
-1.113149
1.393011
0.442078
1.322507
-0.100968
1.985374
-0.137384
0.337001
0.675384
0.065789
0.462570
0.913625
-0.058323
0.854975
-0.148619
0.570251
0.496218
-0.107045
0.206887
0.729892
-0.217231
0.420929
-0.305618
-0.137709
1.067199
-0.322082
0.371165
1.235316
0.016310
0.571235
0.060933
0.016167
0.160896
-1.369218
0.060820
-0.185644
-0.856343
0.055639
0.484555
-0.326408
0.478465
0.157659
-0.229912
0.607365
-0.077588
0.621869
0.301232
0.183001
0.596060
0.673056
0.052219
0.666781
0.640831
0.390094
1.166963
0.142908
0.121075
1.406763
-0.536644
0.438112
0.766479
-1.506518
1.855942
-2.431620
3.243265
-1.634864
1.461294
0.092824
0.812690
-0.428575
0.832799
-0.009766
0.318364
0.683703
0.033646
0.591418
0.105487
0.346219
0.389988
0.326245
-0.000188
0.611113
0.242041
0.165745
0.333516
0.172602
-0.031812
1.083746
-0.259698
0.416006
1.082571
-0.170649
1.835807
-3.157157
3.594906
-4.201378
2.720331
-1.956064
0.780853
-0.775317
0.842163
-0.375447
0.371464
0.222350
-0.119074
0.499100
0.028760
0.487819
0.251135
0.357774
0.268858
0.622978
0.238599
0.368684
0.547732
0.439110
0.436400
0.730422
0.150762
0.350753
0.899395
-0.210097
0.703088
-2.263848
2.955127
-3.807500
3.933133
-2.800920
2.067256
-0.845473
0.976232
-0.506414
0.611120
0.047285
0.214347
0.487164
0.096839
0.426053
0.174795
0.318408
0.308772
0.351602
0.192240
0.364584
0.386543
0.277325
0.245884
0.450385
0.088421
0.506099
0.493684
0.106152
0.640674
0.347883
1.165406
-2.518016
2.603960
-3.078407
2.116404
-1.599352
0.819575
-0.591337
0.604135
-0.172841
0.283261
0.198866
0.056998
0.354007
0.160032
0.369377
0.266502
0.346916
0.262999
0.478014
0.272479
0.418993
0.300729
0.569318
0.242160
0.588973
0.385254
0.220322
0.659921
0.210072
0.478907
-1.056956
1.149020
-1.777821
1.737010
-1.406355
1.030053
-0.482056
0.497576
-0.217036
0.331354
0.084868
0.183127
0.313441
0.147413
0.322498
0.187452
0.323000
0.243638
0.376748
0.202281
0.401895
0.281341
0.397674
0.255191
0.380532
0.366337
0.215321
0.655686
0.106488
0.587997
0.289459
-0.078862
-0.912938
0.592385
-1.126554
0.670737
-0.652047
0.344355
-0.219551
0.314405
-0.016158
0.237102
0.162050
0.173974
0.269984
0.221374
0.315463
0.264556
0.333298
0.276684
0.393379
0.304425
0.368459
0.352143
0.387295
0.416645
0.315196
0.542355
0.183733
0.568686
0.288672
0.453400
-0.224575
-0.162212
-0.325670
0.169619
-0.304669
0.183931
-0.088553
0.136901
0.004671
0.166357
0.113717
0.177741
0.214641
0.194715
0.254326
0.231331
0.284357
0.273956
0.316637
0.286657
0.333554
0.337737
0.328964
0.364024
0.309030
0.433024
0.259141
0.516194
0.273338
0.459728
0.356140
-0.448610
-0.282020
-0.210301
-0.234643
-0.017403
-0.123039
0.058604
0.007698
0.134653
0.090110
0.184966
0.163724
0.217025
0.226612
0.255017
0.267852
0.288165
0.295136
0.314158
0.326060
0.337410
0.334779
0.367040
0.345496
0.397708
0.332820
0.440075
0.308482
0.455102
0.338816
0.442493
