# vtk DataFile Version 2.0
cantilever_tri3_mix
ASCII
DATASET POLYDATA
POINTS 81 float
1.000000 0.000000 0.000000
5.000000 0.000000 0.000000
5.000000 5.000000 0.000000
0.000000 5.000000 0.000000
0.000000 1.000000 0.000000
0.707107 0.707107 0.000000
1.264390 0.000000 0.000000
1.575437 0.000000 0.000000
1.941375 0.000000 0.000000
2.371890 0.000000 0.000000
2.878378 0.000000 0.000000
3.474247 0.000000 0.000000
4.175268 0.000000 0.000000
5.000000 0.963598 0.000000
5.000000 2.097242 0.000000
5.000000 3.430942 0.000000
3.430942 5.000000 0.000000
2.097242 5.000000 0.000000
0.963598 5.000000 0.000000
0.000000 4.175268 0.000000
0.000000 3.474247 0.000000
0.000000 2.878378 0.000000
0.000000 2.371890 0.000000
0.000000 1.941375 0.000000
0.000000 1.575437 0.000000
0.000000 1.264390 0.000000
0.195090 0.980785 0.000000
0.382683 0.923880 0.000000
0.555570 0.831470 0.000000
0.831470 0.555570 0.000000
0.923880 0.382683 0.000000
0.980785 0.195090 0.000000
0.990856 0.990856 0.000000
1.324679 1.324679 0.000000
1.717412 1.717412 0.000000
2.179451 2.179451 0.000000
2.723026 2.723026 0.000000
3.362526 3.362526 0.000000
4.114879 4.114879 0.000000
0.245887 1.246445 0.000000
0.305647 1.558987 0.000000
0.375954 1.926682 0.000000
0.458667 2.359265 0.000000
0.555977 2.868187 0.000000
0.670460 3.466917 0.000000
0.805145 4.171307 0.000000
0.496012 1.193301 0.000000
0.629339 1.510267 0.000000
0.786194 1.883169 0.000000
0.970730 2.321877 0.000000
1.187831 2.838003 0.000000
1.443244 3.445211 0.000000
1.743730 4.159574 0.000000
0.745625 1.106999 0.000000
0.969219 1.431151 0.000000
1.232271 1.812507 0.000000
1.541744 2.261161 0.000000
1.905829 2.788989 0.000000
2.334165 3.409963 0.000000
2.838089 4.140520 0.000000
1.106999 0.745625 0.000000
1.431151 0.969219 0.000000
1.812507 1.232271 0.000000
2.261161 1.541744 0.000000
2.788989 1.905829 0.000000
3.409963 2.334165 0.000000
4.140520 2.838089 0.000000
1.193301 0.496012 0.000000
1.510267 0.629339 0.000000
1.883169 0.786194 0.000000
2.321877 0.970730 0.000000
2.838003 1.187831 0.000000
3.445211 1.443244 0.000000
4.159574 1.743730 0.000000
1.246445 0.245887 0.000000
1.558987 0.305647 0.000000
1.926682 0.375954 0.000000
2.359265 0.458667 0.000000
2.868187 0.555977 0.000000
3.466917 0.670460 0.000000
4.171307 0.805145 0.000000
POLYGONS 128 512
3 4 26 25
3 25 26 39
3 25 39 24
3 24 39 40
3 24 40 23
3 23 40 41
3 23 41 22
3 22 41 42
3 22 42 21
3 21 42 43
3 21 43 20
3 20 43 44
3 20 44 19
3 19 44 45
3 19 45 3
3 3 45 18
3 26 27 39
3 39 27 46
3 39 46 40
3 40 46 47
3 40 47 41
3 41 47 48
3 41 48 42
3 42 48 49
3 42 49 43
3 43 49 50
3 43 50 44
3 44 50 51
3 44 51 45
3 45 51 52
3 45 52 18
3 18 52 17
3 27 28 46
3 46 28 53
3 46 53 47
3 47 53 54
3 47 54 48
3 48 54 55
3 48 55 49
3 49 55 56
3 49 56 50
3 50 56 57
3 50 57 51
3 51 57 58
3 51 58 52
3 52 58 59
3 52 59 17
3 17 59 16
3 28 5 53
3 53 5 32
3 53 32 54
3 54 32 33
3 54 33 55
3 55 33 34
3 55 34 56
3 56 34 35
3 56 35 57
3 57 35 36
3 57 36 58
3 58 36 37
3 58 37 59
3 59 37 38
3 59 38 16
3 16 38 2
3 5 29 60
3 60 32 5
3 32 60 61
3 61 33 32
3 33 61 62
3 62 34 33
3 34 62 63
3 63 35 34
3 35 63 64
3 64 36 35
3 36 64 65
3 65 37 36
3 37 65 66
3 66 38 37
3 38 66 15
3 15 2 38
3 29 30 67
3 67 60 29
3 60 67 68
3 68 61 60
3 61 68 69
3 69 62 61
3 62 69 70
3 70 63 62
3 63 70 71
3 71 64 63
3 64 71 72
3 72 65 64
3 65 72 73
3 73 66 65
3 66 73 14
3 14 15 66
3 30 31 74
3 74 67 30
3 67 74 75
3 75 68 67
3 68 75 76
3 76 69 68
3 69 76 77
3 77 70 69
3 70 77 78
3 78 71 70
3 71 78 79
3 79 72 71
3 72 79 80
3 80 73 72
3 73 80 13
3 13 14 73
3 31 0 6
3 6 74 31
3 74 6 7
3 7 75 74
3 75 7 8
3 8 76 75
3 76 8 9
3 9 77 76
3 77 9 10
3 10 78 77
3 78 10 11
3 11 79 78
3 79 11 12
3 12 80 79
3 80 12 1
3 1 13 80
POINT_DATA 81
SCALARS P float
LOOKUP_TABLE default
-663.813193
3062.132000
259.068001
-66687.101812
46138.238739
-3010.413302
-4259.257579
1704.285350
4144.500617
-2098.492275
150.432823
-1492.394956
1871.685245
849.206136
-549.605441
1551.114728
1503.901244
-2380.489123
1302.911537
-46121.082575
-2780.233950
-6098.692687
-3455.298480
10311.489158
-1123.717655
6602.835462
13729.872342
-5214.775133
-1029.476648
10251.891939
6377.119246
-438.099827
1152.336361
249.206474
6669.356223
1574.452740
-375.044859
1026.261021
2157.562331
-6413.010776
6319.849383
-3629.010614
-432.912744
187.731686
-519.385529
-20977.397754
5242.110239
-2077.711507
-984.649528
1605.764888
-135.245967
622.315893
-107.047062
-82.764279
-1222.188136
5303.083009
6725.528075
74.582080
642.618699
1145.100647
-3648.867313
1250.080941
495.241246
-277.785196
450.280549
344.685205
943.759901
4128.958340
-5109.001901
2672.582012
-552.078589
720.359063
822.332465
478.424037
505.880750
3605.025007
-840.612179
789.316774
-291.168848
-682.845584
1289.766062
