# vtk DataFile Version 2.0
plate_with_hole_mix
ASCII
DATASET POLYDATA
POINTS 1089 float
1.000000 0.000000 0.000000
5.000000 0.000000 0.000000
5.000000 5.000000 0.000000
0.000000 5.000000 0.000000
0.000000 1.000000 0.000000
0.707107 0.707107 0.000000
1.053122 0.000000 0.000000
1.108899 0.000000 0.000000
1.167466 0.000000 0.000000
1.228961 0.000000 0.000000
1.293531 0.000000 0.000000
1.361329 0.000000 0.000000
1.432517 0.000000 0.000000
1.507265 0.000000 0.000000
1.585750 0.000000 0.000000
1.668159 0.000000 0.000000
1.754688 0.000000 0.000000
1.845544 0.000000 0.000000
1.940943 0.000000 0.000000
2.041112 0.000000 0.000000
2.146289 0.000000 0.000000
2.256726 0.000000 0.000000
2.372684 0.000000 0.000000
2.494439 0.000000 0.000000
2.622283 0.000000 0.000000
2.756519 0.000000 0.000000
2.897467 0.000000 0.000000
3.045462 0.000000 0.000000
3.200856 0.000000 0.000000
3.364021 0.000000 0.000000
3.535343 0.000000 0.000000
3.715232 0.000000 0.000000
3.904116 0.000000 0.000000
4.102443 0.000000 0.000000
4.310687 0.000000 0.000000
4.529343 0.000000 0.000000
4.758932 0.000000 0.000000
5.000000 0.257995 0.000000
5.000000 0.522440 0.000000
5.000000 0.793496 0.000000
5.000000 1.071328 0.000000
5.000000 1.356106 0.000000
5.000000 1.648004 0.000000
5.000000 1.947199 0.000000
5.000000 2.253874 0.000000
5.000000 2.568216 0.000000
5.000000 2.890416 0.000000
5.000000 3.220671 0.000000
5.000000 3.559183 0.000000
5.000000 3.906157 0.000000
5.000000 4.261806 0.000000
5.000000 4.626346 0.000000
4.626346 5.000000 0.000000
4.261806 5.000000 0.000000
3.906157 5.000000 0.000000
3.559183 5.000000 0.000000
3.220671 5.000000 0.000000
2.890416 5.000000 0.000000
2.568216 5.000000 0.000000
2.253874 5.000000 0.000000
1.947199 5.000000 0.000000
1.648004 5.000000 0.000000
1.356106 5.000000 0.000000
1.071328 5.000000 0.000000
0.793496 5.000000 0.000000
0.522440 5.000000 0.000000
0.257995 5.000000 0.000000
0.000000 4.758932 0.000000
0.000000 4.529343 0.000000
0.000000 4.310687 0.000000
0.000000 4.102443 0.000000
0.000000 3.904116 0.000000
0.000000 3.715232 0.000000
0.000000 3.535343 0.000000
0.000000 3.364021 0.000000
0.000000 3.200856 0.000000
0.000000 3.045462 0.000000
0.000000 2.897467 0.000000
0.000000 2.756519 0.000000
0.000000 2.622283 0.000000
0.000000 2.494439 0.000000
0.000000 2.372684 0.000000
0.000000 2.256726 0.000000
0.000000 2.146289 0.000000
0.000000 2.041112 0.000000
0.000000 1.940943 0.000000
0.000000 1.845544 0.000000
0.000000 1.754688 0.000000
0.000000 1.668159 0.000000
0.000000 1.585750 0.000000
0.000000 1.507265 0.000000
0.000000 1.432517 0.000000
0.000000 1.361329 0.000000
0.000000 1.293531 0.000000
0.000000 1.228961 0.000000
0.000000 1.167466 0.000000
0.000000 1.108899 0.000000
0.000000 1.053122 0.000000
0.049068 0.998795 0.000000
0.098017 0.995185 0.000000
0.146730 0.989177 0.000000
0.195090 0.980785 0.000000
0.242980 0.970031 0.000000
0.290285 0.956940 0.000000
0.336890 0.941544 0.000000
0.382683 0.923880 0.000000
0.427555 0.903989 0.000000
0.471397 0.881921 0.000000
0.514103 0.857729 0.000000
0.555570 0.831470 0.000000
0.595699 0.803208 0.000000
0.634393 0.773010 0.000000
0.671559 0.740951 0.000000
0.740951 0.671559 0.000000
0.773010 0.634393 0.000000
0.803208 0.595699 0.000000
0.831470 0.555570 0.000000
0.857729 0.514103 0.000000
0.881921 0.471397 0.000000
0.903989 0.427555 0.000000
0.923880 0.382683 0.000000
0.941544 0.336890 0.000000
0.956940 0.290285 0.000000
0.970031 0.242980 0.000000
0.980785 0.195090 0.000000
0.989177 0.146730 0.000000
0.995185 0.098017 0.000000
0.998795 0.049068 0.000000
0.746056 0.746056 0.000000
0.787731 0.787731 0.000000
0.832324 0.832324 0.000000
0.880038 0.880038 0.000000
0.931093 0.931093 0.000000
0.985721 0.985721 0.000000
1.044173 1.044173 0.000000
1.106716 1.106716 0.000000
1.173638 1.173638 0.000000
1.245244 1.245244 0.000000
1.321863 1.321863 0.000000
1.403845 1.403845 0.000000
1.491566 1.491566 0.000000
1.585427 1.585427 0.000000
1.685859 1.685859 0.000000
1.793320 1.793320 0.000000
1.908304 1.908304 0.000000
2.031337 2.031337 0.000000
2.162982 2.162982 0.000000
2.303843 2.303843 0.000000
2.454563 2.454563 0.000000
2.615834 2.615834 0.000000
2.788394 2.788394 0.000000
2.973033 2.973033 0.000000
3.170597 3.170597 0.000000
3.381991 3.381991 0.000000
3.608181 3.608181 0.000000
3.850206 3.850206 0.000000
4.109172 4.109172 0.000000
4.386265 4.386265 0.000000
4.682756 4.682756 0.000000
0.050932 1.051011 0.000000
0.052928 1.105877 0.000000
0.055066 1.163528 0.000000
0.057356 1.224108 0.000000
0.059809 1.287766 0.000000
0.062436 1.354658 0.000000
0.065249 1.424951 0.000000
0.068262 1.498819 0.000000
0.071489 1.576443 0.000000
0.074944 1.658018 0.000000
0.078645 1.743744 0.000000
0.082608 1.833834 0.000000
0.086851 1.928513 0.000000
0.091395 2.028015 0.000000
0.096261 2.132589 0.000000
0.101472 2.242493 0.000000
0.107051 2.358003 0.000000
0.113026 2.479405 0.000000
0.119423 2.607004 0.000000
0.126273 2.741116 0.000000
0.133607 2.882078 0.000000
0.141460 3.030242 0.000000
0.149868 3.185979 0.000000
0.158871 3.349680 0.000000
0.168510 3.521753 0.000000
0.178830 3.702632 0.000000
0.189880 3.892771 0.000000
0.201710 4.092648 0.000000
0.214375 4.302766 0.000000
0.227935 4.523655 0.000000
0.242453 4.755871 0.000000
0.101808 1.046500 0.000000
0.105867 1.100462 0.000000
0.110215 1.157209 0.000000
0.114871 1.216885 0.000000
0.119858 1.279643 0.000000
0.125198 1.345645 0.000000
0.130917 1.415061 0.000000
0.137042 1.488068 0.000000
0.143600 1.564855 0.000000
0.150623 1.645620 0.000000
0.158144 1.730572 0.000000
0.166198 1.819930 0.000000
0.174821 1.913925 0.000000
0.184055 2.012802 0.000000
0.193943 2.116817 0.000000
0.204531 2.226241 0.000000
0.215867 2.341359 0.000000
0.228005 2.462471 0.000000
0.241002 2.589892 0.000000
0.254918 2.723958 0.000000
0.269817 2.865019 0.000000
0.285769 3.013444 0.000000
0.302849 3.169625 0.000000
0.321136 3.333973 0.000000
0.340714 3.506920 0.000000
0.361675 3.688923 0.000000
0.384116 3.880465 0.000000
0.408141 4.082051 0.000000
0.433863 4.294219 0.000000
0.461399 4.517531 0.000000
0.490880 4.752582 0.000000
0.152513 1.039598 0.000000
0.158705 1.092664 0.000000
0.165337 1.148513 0.000000
0.172439 1.207296 0.000000
0.180044 1.269168 0.000000
0.188188 1.334295 0.000000
0.196909 1.402850 0.000000
0.206248 1.475017 0.000000
0.216249 1.550989 0.000000
0.226957 1.630970 0.000000
0.238423 1.715176 0.000000
0.250701 1.803833 0.000000
0.263847 1.897181 0.000000
0.277923 1.995473 0.000000
0.292995 2.098976 0.000000
0.309133 2.207969 0.000000
0.326411 2.322751 0.000000
0.344911 2.443633 0.000000
0.364718 2.570948 0.000000
0.385925 2.705042 0.000000
0.408630 2.846285 0.000000
0.432939 2.995065 0.000000
0.458964 3.151791 0.000000
0.486827 3.316897 0.000000
0.516657 3.490839 0.000000
0.548592 3.674101 0.000000
0.582781 3.867192 0.000000
0.619383 4.070649 0.000000
0.658567 4.285042 0.000000
0.700515 4.510969 0.000000
0.745422 4.749065 0.000000
0.202933 1.030318 0.000000
0.211331 1.082494 0.000000
0.220324 1.137456 0.000000
0.229954 1.195355 0.000000
0.240266 1.256353 0.000000
0.251309 1.320618 0.000000
0.263133 1.388328 0.000000
0.275793 1.459673 0.000000
0.289350 1.534851 0.000000
0.303865 1.614074 0.000000
0.319407 1.697561 0.000000
0.336048 1.785550 0.000000
0.353866 1.878286 0.000000
0.372943 1.976033 0.000000
0.393368 2.079067 0.000000
0.415237 2.187680 0.000000
0.438650 2.302181 0.000000
0.463717 2.422896 0.000000
0.490555 2.550171 0.000000
0.519287 2.684369 0.000000
0.550048 2.825878 0.000000
0.582980 2.975103 0.000000
0.618237 3.132475 0.000000
0.655981 3.298451 0.000000
0.696388 3.473511 0.000000
0.739645 3.658165 0.000000
0.785954 3.852952 0.000000
0.835528 4.058441 0.000000
0.888598 4.275234 0.000000
0.945409 4.503969 0.000000
1.006225 4.745320 0.000000
0.252954 1.018680 0.000000
0.263633 1.069972 0.000000
0.275069 1.124053 0.000000
0.287314 1.181079 0.000000
0.300425 1.241213 0.000000
0.314463 1.304629 0.000000
0.329495 1.371511 0.000000
0.345589 1.442052 0.000000
0.362821 1.516457 0.000000
0.381271 1.594944 0.000000
0.401024 1.677741 0.000000
0.422174 1.765091 0.000000
0.444817 1.857250 0.000000
0.469060 1.954491 0.000000
0.495015 2.057100 0.000000
0.522802 2.165381 0.000000
0.552551 2.279656 0.000000
0.584400 2.400264 0.000000
0.618496 2.527566 0.000000
0.654998 2.661944 0.000000
0.694075 2.803800 0.000000
0.735909 2.953561 0.000000
0.780693 3.111681 0.000000
0.828636 3.278637 0.000000
0.879958 3.454936 0.000000
0.934899 3.641116 0.000000
0.993713 3.837745 0.000000
1.056672 4.045425 0.000000
1.124067 4.264795 0.000000
1.196212 4.496529 0.000000
1.273439 4.741345 0.000000
0.302463 1.004709 0.000000
0.315503 1.055122 0.000000
0.329465 1.108329 0.000000
0.344414 1.164489 0.000000
0.360420 1.223770 0.000000
0.377557 1.286350 0.000000
0.395905 1.352418 0.000000
0.415549 1.422172 0.000000
0.436580 1.495824 0.000000
0.459097 1.573597 0.000000
0.483203 1.655730 0.000000
0.509012 1.742471 0.000000
0.536642 1.834087 0.000000
0.566222 1.930860 0.000000
0.597889 2.033086 0.000000
0.631790 2.141083 0.000000
0.668083 2.255185 0.000000
0.706936 2.375746 0.000000
0.748528 2.503143 0.000000
0.793054 2.637772 0.000000
0.840718 2.780058 0.000000
0.891742 2.930446 0.000000
0.946363 3.089411 0.000000
1.004833 3.257457 0.000000
1.067423 3.435117 0.000000
1.134422 3.622955 0.000000
1.206142 3.821572 0.000000
1.282913 4.031604 0.000000
1.365091 4.253725 0.000000
1.453056 4.488651 0.000000
1.547215 4.737141 0.000000
0.351350 0.988436 0.000000
0.366833 1.037975 0.000000
0.383409 1.090313 0.000000
0.401155 1.145615 0.000000
0.420155 1.204052 0.000000
0.440497 1.265807 0.000000
0.462274 1.331073 0.000000
0.485588 1.400056 0.000000
0.510548 1.472974 0.000000
0.537269 1.550057 0.000000
0.565875 1.631549 0.000000
0.596498 1.717710 0.000000
0.629282 1.808815 0.000000
0.664377 1.905156 0.000000
0.701947 2.007042 0.000000
0.742165 2.114802 0.000000
0.785219 2.228783 0.000000
0.831306 2.349356 0.000000
0.880642 2.476911 0.000000
0.933453 2.611866 0.000000
0.989986 2.754661 0.000000
1.050500 2.905765 0.000000
[...]
POINT_DATA 1089
SCALARS P float 1
LOOKUP_TABLE default
-1.022001
0.436693
0.493488
0.580531
2.399900
1.300165
0.607466
-1.485155
1.025293
-1.358830
1.036040
-1.066209
0.936507
-0.765620
0.828441
-0.506395
0.737494
-0.297142
0.666946
-0.129959
0.617480
-0.001013
0.580978
0.105685
0.551143
0.189195
0.533083
0.253073
0.518767
0.305780
0.509594
0.344764
0.504555
0.378943
0.496144
0.410505
0.491453
0.454726
0.430706
0.511131
0.387159
0.603877
0.280241
0.663583
0.387473
0.424014
0.684257
0.229807
0.715672
0.358713
0.531204
0.498293
0.522998
0.460031
0.613800
0.346947
0.685252
0.404940
0.500633
0.669406
0.297928
0.748679
0.375637
0.632209
0.478828
0.584716
0.546855
0.476502
0.628413
0.456320
0.671670
0.436995
0.716738
0.418446
0.770580
0.390482
0.843502
0.350967
0.935755
0.298544
1.057305
0.223348
1.212435
0.128650
1.407298
-0.000708
1.660150
-0.170288
1.979947
-0.391203
2.377904
-0.653786
2.831455
-0.907734
3.259414
-0.982513
3.365001
-0.360097
2.558396
2.773613
3.497158
2.524128
4.654396
2.575730
3.983367
4.298708
0.913113
5.307292
1.542057
0.875675
3.894896
-0.752805
1.112763
-0.960067
1.159248
-0.693551
-0.003704
-2.100513
-0.992493
0.088434
-0.903228
-3.192376
0.747340
-3.258828
-0.482499
-1.767078
-1.303328
-1.070714
-1.210746
0.338526
3.361642
0.406328
2.631656
1.337777
1.073485
0.890691
0.160343
1.056496
0.588125
0.872688
0.498205
0.687472
0.580727
0.249732
0.509282
0.556899
0.460021
0.030330
-0.005529
0.253137
0.421476
0.463859
0.400079
0.482125
0.805308
1.065331
0.953897
0.639918
0.497792
-0.642211
3.996706
-1.500936
3.943875
-1.502961
3.505470
-1.231937
2.995085
-0.940320
2.534096
-0.653004
2.115711
-0.398955
1.773840
-0.184518
1.483753
-0.013507
1.269205
0.111477
1.093094
0.219343
0.959809
0.288647
0.863536
0.342000
0.782429
0.378138
0.726499
0.416580
0.648489
0.482121
-1.963789
5.634370
-3.325191
5.266326
-2.448915
4.022076
-1.508439
2.945511
-0.709370
2.138802
-0.218499
1.641635
0.086566
1.307368
0.231919
1.130175
0.317547
0.983089
0.357086
0.918563
0.353781
0.841853
0.386017
0.769013
0.405015
0.715406
0.460937
0.625385
0.501096
0.600428
0.493382
-2.366874
6.327180
-4.467149
7.048173
-4.712369
6.298773
-3.739021
5.161737
-2.884241
4.182957
-2.064439
3.303925
-1.444114
2.627614
-0.883497
2.027394
-0.486183
1.621681
-0.151317
1.228610
0.137592
0.998941
0.284986
0.835360
0.422664
0.686881
0.453131
0.655490
0.492971
0.537527
0.592912
-2.561523
6.940850
-4.601920
6.216842
-2.910238
4.446805
-1.822320
3.120273
-0.745726
2.084746
-0.139968
1.465958
0.323948
1.039352
0.467848
0.879446
0.599221
0.706228
0.589946
0.744892
0.501262
0.670891
0.528966
0.616955
0.471613
0.648209
0.538809
0.514795
0.581815
0.591201
0.426324
-4.289376
8.730906
-7.897504
10.566819
-8.248079
8.671045
-5.350790
5.985184
-3.341237
4.219629
-1.926009
3.065986
-1.262758
2.388808
-0.644320
1.783183
-0.362597
1.495296
-0.051854
1.051682
0.276297
0.894478
0.346854
0.793294
0.532596
0.544858
0.531842
0.662438
0.404078
0.557269
0.682410
-4.503737
9.798931
-6.880754
7.373759
-3.140974
4.873412
-2.524780
3.956957
-1.650690
2.955162
-1.019245
2.078793
-0.114532
1.317925
0.176441
1.035097
0.565788
0.627887
0.660644
0.722111
0.496315
0.595453
0.624737
0.433916
0.497428
0.727632
0.407227
0.508779
0.761261
0.384097
0.426842
-1.630806
5.345938
-6.334599
10.744636
-9.991919
9.730638
-5.809877
5.614493
-2.651242
3.104439
-0.725219
1.938890
-0.441055
1.614556
0.072496
1.110523
0.037325
1.212448
0.089755
0.793636
0.506918
0.706812
0.381853
0.956086
0.413034
0.431532
0.829762
0.420301
0.199574
1.040859
0.355342
-10.263143
16.767370
-12.126642
9.211040
-2.083714
3.180291
-1.127909
2.998999
-1.208254
2.901063
-1.422448
2.407221
-0.308098
1.429740
-0.139131
1.368644
0.347757
0.635338
0.757032
0.726786
0.326774
0.784193
0.476459
0.142170
0.923875
0.473184
0.073758
1.284484
0.338186
-0.042537
1.106657
5.641852
-4.115904
1.594738
5.919149
-9.286983
10.209593
-6.927338
6.331037
-3.261836
3.091757
-0.300653
1.286873
-0.182357
1.368814
0.399091
0.491796
0.497322
0.896023
0.035580
0.748883
0.688714
0.233975
1.033077
0.745512
-0.050751
1.307753
0.329633
-0.375129
1.633977
0.469497
-0.299856
-12.629006
19.452942
-15.312160
11.057377
-1.191325
0.894474
1.728075
0.179374
1.271172
0.968905
-0.543024
2.020151
0.147511
0.749755
0.322704
1.282346
0.201420
0.682976
1.079446
0.198582
0.774676
0.651663
-0.278077
1.077559
0.454085
-0.347149
1.880939
0.314693
-0.705017
1.460584
1.303779
2.352541
-1.254175
2.027798
2.090696
-6.157079
7.642744
-6.128786
6.159497
-4.071929
3.852174
-0.488860
0.546713
0.343230
1.136609
0.272478
0.215312
0.996740
0.122321
0.358938
0.814678
0.044506
1.222296
0.799894
-0.121891
1.673557
0.076797
-0.691492
1.959185
0.884010
-1.148271
0.034930
-0.929185
4.597312
-5.226236
7.583112
-1.023801
1.831856
1.599835
-0.566038
3.065841
-1.613469
1.466254
1.182989
0.352250
0.381761
1.054342
0.626083
0.410261
1.071398
0.399455
0.874998
0.447983
-0.350690
1.146267
-0.002553
-0.207145
2.063612
0.356985
-1.163138
1.622798
2.240341
0.646115
-5.532647
8.030898
-3.503720
0.252241
-0.776036
0.366977
-0.392599
1.460010
-1.616493
3.270905
-1.136117
0.494617
0.845148
0.384158
0.244004
0.588196
0.336231
0.445274
0.354987
0.155396
1.462326
0.519462
0.346368
1.686748
-0.149752
-0.644747
1.999914
0.972518
-1.578069
-0.772836
0.586088
3.937251
-3.774381
3.177076
3.036200
-0.131114
3.522431
-0.570975
1.922580
0.916216
-0.984055
2.327455
0.193316
0.590889
0.873431
0.550469
0.792514
0.505537
0.556156
1.089757
0.105676
-0.184634
0.831588
-0.221192
0.054615
1.822466
0.240358
-0.768036
1.499221
2.564838
1.138587
0.383880
-0.803481
3.880744
-3.144518
-0.022363
-0.311580
-1.583121
1.286322
-1.053627
1.257585
0.660116
-0.501118
0.835003
0.145307
0.458986
0.359394
0.379627
0.779773
0.150898
0.369482
1.127148
0.840112
0.653841
1.233603
0.092810
0.027705
1.267180
0.624071
-0.902265
-0.702810
0.299673
0.530799
3.632846
-1.002796
-1.737169
0.814328
-1.887347
0.059594
-0.836866
0.803835
0.476910
-0.396996
1.030532
-0.324973
0.639037
0.353317
0.318250
0.973525
0.393755
0.761686
0.521604
0.457438
1.164211
1.033188
0.012626
0.972372
1.111679
-0.106835
0.143678
1.056848
0.685701
0.152517
0.388575
-2.445358
1.909210
2.093123
0.033792
2.329024
0.691006
1.918129
-0.096575
0.161606
1.751752
-0.406390
1.099697
0.528997
0.428490
0.636258
0.059330
0.356215
0.296128
0.196031
0.568681
0.455257
-0.565855
0.850038
0.900532
-0.924054
0.600935
1.785602
-0.059767
-0.763619
0.505864
0.821693
3.745109
-3.469136
1.450351
-1.517470
0.189091
-0.616740
-0.875569
0.776744
0.857588
-0.931793
1.043494
0.068221
0.369588
0.205710
0.547606
0.674435
0.497289
0.942063
0.360222
0.913900
0.063459
1.024516
1.135507
-0.607969
1.168599
1.810076
-0.954127
-0.153757
2.106220
1.221619
0.135199
-1.744130
3.186107
-1.286838
2.253581
-0.048579
1.161857
1.461620
0.047645
-0.293742
1.653484
-0.220710
0.882569
0.065340
0.921251
0.405916
-0.157463
0.990831
-0.454984
0.688454
0.274934
0.170397
0.992102
-0.554015
0.793673
1.269098
-1.180151
0.535486
2.254317
-0.391786
-0.883400
0.629642
7.162719
-10.679056
10.302034
-9.175907
6.609804
-4.902831
2.389328
-1.658551
2.324006
-1.607362
1.348891
-0.444054
0.875493
0.140280
-0.149827
1.513723
-0.395082
1.051652
0.779141
-0.051702
1.175417
0.061952
0.433860
1.402074
-0.700325
0.924645
1.833756
-0.981573
-0.027369
1.969916
0.756073
0.916395
-0.758091
2.175048
-1.768809
2.376009
-1.033794
2.127890
-0.501602
0.118272
0.870418
0.114941
0.637035
0.306726
0.061924
1.339336
-0.692953
0.853586
0.445215
-0.342426
0.977713
0.182833
0.082038
1.167108
-0.299551
0.468228
1.420245
-0.976067
0.628222
1.812835
-0.363704
-0.188785
-0.243773
-0.549366
0.890464
-2.589616
3.989042
-5.151325
4.798603
-4.587644
4.696784
-3.427614
2.746140
-1.445547
1.176155
0.260178
-0.207370
0.929585
0.442887
0.042704
1.053863
0.282175
0.199119
0.996861
0.047034
0.372433
1.173339
-0.344853
0.663235
1.481587
-0.695760
0.452698
1.252488
1.675914
-1.935965
0.735069
1.967755
-4.042401
5.707153
-4.756883
4.548853
-3.178614
2.398638
-0.575800
0.399161
0.916923
-0.707443
1.532986
-0.457512
0.519938
0.491960
0.170999
0.231247
0.744601
0.108910
0.415739
0.807332
-0.013968
0.496604
0.980389
-0.355593
0.649835
1.124352
-0.094271
6.404556
-10.278762
12.330777
-13.956737
13.830648
-12.548580
9.873515
-7.160861
5.170566
-2.794756
1.618568
-0.267389
0.163327
0.706731
-0.074091
0.411670
0.738204
-0.044765
0.759507
0.378261
0.365355
0.405715
0.658064
0.122784
0.605246
0.635483
0.128704
0.596377
0.846846
-0.098700
0.634736
-2.603426
3.602912
-5.038584
5.757249
-5.825532
5.143617
-3.297571
2.041498
-0.584285
-0.012309
1.033949
-0.699001
1.242479
-0.541432
0.883110
0.127011
0.192037
0.525744
0.254999
0.292184
0.489899
0.394390
0.311796
0.523705
0.481386
0.234966
0.594191
0.507609
0.193748
0.647473
0.581005
6.307625
-9.939293
10.838775
-11.167606
9.913808
-8.358653
6.255735
-4.316491
3.167233
-1.787787
1.434308
-0.654354
0.920255
-0.264864
0.847383
-0.267368
1.004676
-0.150774
0.745347
0.230268
0.511464
0.285758
0.566633
0.332061
0.421973
0.516643
0.454401
0.334342
0.616934
0.435046
0.307843
-0.157478
-0.132791
-0.493486
0.481333
-0.644775
0.475227
-0.002805
-0.206688
0.562589
-0.418520
0.762019
-0.259233
0.596815
-0.004052
0.429496
0.266721
0.247822
0.368906
0.361542
0.272951
0.465353
0.349967
0.410564
0.394693
0.477731
0.373936
0.420192
0.520189
0.385128
0.422831
0.571636
2.494486
-4.561614
4.508184
-4.976094
4.358005
-4.034399
3.348265
-2.672005
2.389988
-1.710998
1.732503
-1.104729
1.388225
-0.693499
1.135622
-0.414620
0.994942
-0.170689
0.774212
0.101023
0.608256
0.216708
0.571240
0.305140
0.494572
0.391049
0.503109
0.377243
0.488695
0.480097
0.396626
1.536103
-2.542611
2.103192
-2.199742
1.709455
-1.528772
1.308576
-1.068084
1.038558
-0.683417
0.854405
-0.381097
0.696250
-0.160441
0.614863
0.000114
0.543964
0.114925
0.545418
0.157413
0.559964
0.228930
0.527246
0.292768
0.521087
0.339442
0.481968
0.419279
0.460640
0.422505
0.491181
0.736964
-1.875764
1.383126
-1.819124
1.453530
-1.505344
1.343149
-1.132802
1.178797
-0.803582
1.020717
-0.526803
0.897718
-0.304412
0.790302
-0.124007
0.716736
0.006741
0.657323
0.120943
0.604139
0.203489
0.580591
0.259945
0.559513
0.309020
0.549092
0.337364
0.535162
0.389769
0.497794
