# vtk DataFile Version 2.0
plate_with_hole_mix
ASCII
DATASET POLYDATA
POINTS 81 float
1.000000 0.000000 0.000000
5.000000 0.000000 0.000000
5.000000 5.000000 0.000000
0.000000 5.000000 0.000000
0.000000 1.000000 0.000000
0.707107 0.707107 0.000000
1.201594 0.000000 0.000000
1.453587 0.000000 0.000000
1.768577 0.000000 0.000000
2.162316 0.000000 0.000000
2.654488 0.000000 0.000000
3.269705 0.000000 0.000000
4.038725 0.000000 0.000000
5.000000 0.931446 0.000000
5.000000 2.049180 0.000000
5.000000 3.390462 0.000000
3.390462 5.000000 0.000000
2.049180 5.000000 0.000000
0.931446 5.000000 0.000000
0.000000 4.038725 0.000000
0.000000 3.269705 0.000000
0.000000 2.654488 0.000000
0.000000 2.162316 0.000000
0.000000 1.768577 0.000000
0.000000 1.453587 0.000000
0.000000 1.201594 0.000000
0.195090 0.980785 0.000000
0.382683 0.923880 0.000000
0.555570 0.831470 0.000000
0.831470 0.555570 0.000000
0.923880 0.382683 0.000000
0.980785 0.195090 0.000000
0.856873 0.856873 0.000000
1.059057 1.059057 0.000000
1.332005 1.332005 0.000000
1.700486 1.700486 0.000000
2.197934 2.197934 0.000000
2.869490 2.869490 0.000000
3.776090 3.776090 0.000000
0.220161 1.170722 0.000000
0.254207 1.410982 0.000000
0.300420 1.715141 0.000000
0.363123 2.100515 0.000000
0.448164 2.589220 0.000000
0.563460 3.209532 0.000000
0.719723 3.997656 0.000000
0.439927 1.101649 0.000000
0.517497 1.330083 0.000000
0.622579 1.624023 0.000000
0.764896 2.002786 0.000000
0.957591 2.491547 0.000000
1.218440 3.123161 0.000000
1.571474 3.940574 0.000000
0.653744 0.996062 0.000000
0.786516 1.212036 0.000000
0.966052 1.495816 0.000000
1.208794 1.869189 0.000000
1.536958 2.361081 0.000000
1.980556 3.009932 0.000000
2.580133 3.866877 0.000000
0.996062 0.653744 0.000000
1.212036 0.786516 0.000000
1.495816 0.966052 0.000000
1.869189 1.208794 0.000000
2.361081 1.536958 0.000000
3.009932 1.980556 0.000000
3.866877 2.580133 0.000000
1.101649 0.439927 0.000000
1.330083 0.517497 0.000000
1.624023 0.622579 0.000000
2.002786 0.764896 0.000000
2.491547 0.957591 0.000000
3.123161 1.218440 0.000000
3.940574 1.571474 0.000000
1.170722 0.220161 0.000000
1.410982 0.254207 0.000000
1.715141 0.300420 0.000000
2.100515 0.363123 0.000000
2.589220 0.448164 0.000000
3.209532 0.563460 0.000000
3.997656 0.719723 0.000000
POLYGONS 128 512
3 4 26 25
3 25 26 39
3 25 39 24
3 24 39 40
3 24 40 23
3 23 40 41
3 23 41 22
3 22 41 42
3 22 42 21
3 21 42 43
3 21 43 20
3 20 43 44
3 20 44 19
3 19 44 45
3 19 45 3
3 3 45 18
3 26 27 39
3 39 27 46
3 39 46 40
3 40 46 47
3 40 47 41
3 41 47 48
3 41 48 42
3 42 48 49
3 42 49 43
3 43 49 50
3 43 50 44
3 44 50 51
3 44 51 45
3 45 51 52
3 45 52 18
3 18 52 17
3 27 28 46
3 46 28 53
3 46 53 47
3 47 53 54
3 47 54 48
3 48 54 55
3 48 55 49
3 49 55 56
3 49 56 50
3 50 56 57
3 50 57 51
3 51 57 58
3 51 58 52
3 52 58 59
3 52 59 17
3 17 59 16
3 28 5 53
3 53 5 32
3 53 32 54
3 54 32 33
3 54 33 55
3 55 33 34
3 55 34 56
3 56 34 35
3 56 35 57
3 57 35 36
3 57 36 58
3 58 36 37
3 58 37 59
3 59 37 38
3 59 38 16
3 16 38 2
3 5 29 60
3 60 32 5
3 32 60 61
3 61 33 32
3 33 61 62
3 62 34 33
3 34 62 63
3 63 35 34
3 35 63 64
3 64 36 35
3 36 64 65
3 65 37 36
3 37 65 66
3 66 38 37
3 38 66 15
3 15 2 38
3 29 30 67
3 67 60 29
3 60 67 68
3 68 61 60
3 61 68 69
3 69 62 61
3 62 69 70
3 70 63 62
3 63 70 71
3 71 64 63
3 64 71 72
3 72 65 64
3 65 72 73
3 73 66 65
3 66 73 14
3 14 15 66
3 30 31 74
3 74 67 30
3 67 74 75
3 75 68 67
3 68 75 76
3 76 69 68
3 69 76 77
3 77 70 69
3 70 77 78
3 78 71 70
3 71 78 79
3 79 72 71
3 72 79 80
3 80 73 72
3 73 80 13
3 13 14 73
3 31 0 6
3 6 74 31
3 74 6 7
3 7 75 74
3 75 7 8
3 8 76 75
3 76 8 9
3 9 77 76
3 77 9 10
3 10 78 77
3 78 10 11
3 11 79 78
3 79 11 12
3 12 80 79
3 80 12 1
3 1 13 80
POINT_DATA 81
SCALARS P float 1
LOOKUP_TABLE default
-1.022437
0.249199
0.507354
0.831421
2.271438
0.589805
0.331319
-0.341738
0.481366
0.026243
0.578033
0.184991
0.657103
0.293541
0.414234
0.495487
0.521334
0.612003
0.792321
0.250766
0.907458
0.296262
1.096441
0.327374
1.535297
0.344317
2.368271
1.843358
1.476552
-0.317393
-0.566440
-1.039741
0.364022
0.569715
0.453020
0.519177
0.474130
0.520236
0.478884
0.273755
1.763552
0.219581
1.198400
0.245761
0.912003
0.264941
0.176084
1.424652
0.318859
0.991275
0.322600
0.810644
0.345898
0.116623
1.227403
0.236609
0.881371
0.347942
0.646170
0.473791
0.743144
-0.071233
0.678094
0.190735
0.635179
0.367147
0.523785
0.370305
-0.128008
0.435612
0.172171
0.529844
0.286551
0.585190
0.458574
-0.500332
0.614290
-0.041267
0.650664
0.190729
0.646073
